+ 0.2 0 1 tcp 40 ------- 0 0.0 1.0 0 0
- 0.2 0 1 tcp 40 ------- 0 0.0 1.0 0 0
r 0.205267 0 1 tcp 40 ------- 0 0.0 1.0 0 0
+ 0.205267 1 0 ack 40 ------- 0 1.0 0.0 0 1
- 0.205267 1 0 ack 40 ------- 0 1.0 0.0 0 1
r 0.210533 1 0 ack 40 ------- 0 1.0 0.0 0 1
+ 0.210533 0 1 tcp 1040 ------- 0 0.0 1.0 1 2
- 0.210533 0 1 tcp 1040 ------- 0 0.0 1.0 1 2
+ 0.210533 0 1 tcp 1040 ------- 0 0.0 1.0 2 3
- 0.217467 0 1 tcp 1040 ------- 0 0.0 1.0 2 3
r 0.222467 0 1 tcp 1040 ------- 0 0.0 1.0 1 2
+ 0.222467 1 0 ack 40 ------- 0 1.0 0.0 1 4
- 0.222467 1 0 ack 40 ------- 0 1.0 0.0 1 4
r 0.227733 1 0 ack 40 ------- 0 1.0 0.0 1 4
+ 0.227733 0 1 tcp 1040 ------- 0 0.0 1.0 3 5
- 0.227733 0 1 tcp 1040 ------- 0 0.0 1.0 3 5
+ 0.227733 0 1 tcp 1040 ------- 0 0.0 1.0 4 6
r 0.2294 0 1 tcp 1040 ------- 0 0.0 1.0 2 3
+ 0.2294 1 0 ack 40 ------- 0 1.0 0.0 2 7
- 0.2294 1 0 ack 40 ------- 0 1.0 0.0 2 7
- 0.234667 0 1 tcp 1040 ------- 0 0.0 1.0 4 6
r 0.234667 1 0 ack 40 ------- 0 1.0 0.0 2 7
+ 0.234667 0 1 tcp 1040 ------- 0 0.0 1.0 5 8
+ 0.234667 0 1 tcp 1040 ------- 0 0.0 1.0 6 9
r 0.239667 0 1 tcp 1040 ------- 0 0.0 1.0 3 5
+ 0.239667 1 0 ack 40 ------- 0 1.0 0.0 3 10
- 0.239667 1 0 ack 40 ------- 0 1.0 0.0 3 10
- 0.2416 0 1 tcp 1040 ------- 0 0.0 1.0 5 8
r 0.244933 1 0 ack 40 ------- 0 1.0 0.0 3 10
+ 0.244933 0 1 tcp 1040 ------- 0 0.0 1.0 7 11
+ 0.244933 0 1 tcp 1040 ------- 0 0.0 1.0 8 12
r 0.2466 0 1 tcp 1040 ------- 0 0.0 1.0 4 6
+ 0.2466 1 0 ack 40 ------- 0 1.0 0.0 4 13
- 0.2466 1 0 ack 40 ------- 0 1.0 0.0 4 13
- 0.248533 0 1 tcp 1040 ------- 0 0.0 1.0 6 9
r 0.251867 1 0 ack 40 ------- 0 1.0 0.0 4 13
+ 0.251867 0 1 tcp 1040 ------- 0 0.0 1.0 9 14
+ 0.251867 0 1 tcp 1040 ------- 0 0.0 1.0 10 15
r 0.253533 0 1 tcp 1040 ------- 0 0.0 1.0 5 8
+ 0.253533 1 0 ack 40 ------- 0 1.0 0.0 5 16
- 0.253533 1 0 ack 40 ------- 0 1.0 0.0 5 16
- 0.255467 0 1 tcp 1040 ------- 0 0.0 1.0 7 11
r 0.2588 1 0 ack 40 ------- 0 1.0 0.0 5 16
+ 0.2588 0 1 tcp 1040 ------- 0 0.0 1.0 11 17
+ 0.2588 0 1 tcp 1040 ------- 0 0.0 1.0 12 18
r 0.260467 0 1 tcp 1040 ------- 0 0.0 1.0 6 9
+ 0.260467 1 0 ack 40 ------- 0 1.0 0.0 6 19
- 0.260467 1 0 ack 40 ------- 0 1.0 0.0 6 19
- 0.2624 0 1 tcp 1040 ------- 0 0.0 1.0 8 12
r 0.265733 1 0 ack 40 ------- 0 1.0 0.0 6 19
+ 0.265733 0 1 tcp 1040 ------- 0 0.0 1.0 13 20
+ 0.265733 0 1 tcp 1040 ------- 0 0.0 1.0 14 21
r 0.2674 0 1 tcp 1040 ------- 0 0.0 1.0 7 11
+ 0.2674 1 0 ack 40 ------- 0 1.0 0.0 7 22
- 0.2674 1 0 ack 40 ------- 0 1.0 0.0 7 22
- 0.269333 0 1 tcp 1040 ------- 0 0.0 1.0 9 14
r 0.272667 1 0 ack 40 ------- 0 1.0 0.0 7 22
+ 0.272667 0 1 tcp 1040 ------- 0 0.0 1.0 15 23
+ 0.272667 0 1 tcp 1040 ------- 0 0.0 1.0 16 24
r 0.274333 0 1 tcp 1040 ------- 0 0.0 1.0 8 12
+ 0.274333 1 0 ack 40 ------- 0 1.0 0.0 8 25
- 0.274333 1 0 ack 40 ------- 0 1.0 0.0 8 25
- 0.276267 0 1 tcp 1040 ------- 0 0.0 1.0 10 15
r 0.2796 1 0 ack 40 ------- 0 1.0 0.0 8 25
+ 0.2796 0 1 tcp 1040 ------- 0 0.0 1.0 17 26
+ 0.2796 0 1 tcp 1040 ------- 0 0.0 1.0 18 27
r 0.281267 0 1 tcp 1040 ------- 0 0.0 1.0 9 14
+ 0.281267 1 0 ack 40 ------- 0 1.0 0.0 9 28
- 0.281267 1 0 ack 40 ------- 0 1.0 0.0 9 28
- 0.2832 0 1 tcp 1040 ------- 0 0.0 1.0 11 17
r 0.286533 1 0 ack 40 ------- 0 1.0 0.0 9 28
+ 0.286533 0 1 tcp 1040 ------- 0 0.0 1.0 19 29
+ 0.286533 0 1 tcp 1040 ------- 0 0.0 1.0 20 30
r 0.2882 0 1 tcp 1040 ------- 0 0.0 1.0 10 15
+ 0.2882 1 0 ack 40 ------- 0 1.0 0.0 10 31
- 0.2882 1 0 ack 40 ------- 0 1.0 0.0 10 31
- 0.290133 0 1 tcp 1040 ------- 0 0.0 1.0 12 18
r 0.293467 1 0 ack 40 ------- 0 1.0 0.0 10 31
+ 0.293467 0 1 tcp 1040 ------- 0 0.0 1.0 21 32
+ 0.293467 0 1 tcp 1040 ------- 0 0.0 1.0 22 33
r 0.295133 0 1 tcp 1040 ------- 0 0.0 1.0 11 17
+ 0.295133 1 0 ack 40 ------- 0 1.0 0.0 11 34
- 0.295133 1 0 ack 40 ------- 0 1.0 0.0 11 34
- 0.297067 0 1 tcp 1040 ------- 0 0.0 1.0 13 20
r 0.3004 1 0 ack 40 ------- 0 1.0 0.0 11 34
+ 0.3004 0 1 tcp 1040 ------- 0 0.0 1.0 23 35
+ 0.3004 0 1 tcp 1040 ------- 0 0.0 1.0 24 36
r 0.302067 0 1 tcp 1040 ------- 0 0.0 1.0 12 18
+ 0.302067 1 0 ack 40 ------- 0 1.0 0.0 12 37
- 0.302067 1 0 ack 40 ------- 0 1.0 0.0 12 37
- 0.304 0 1 tcp 1040 ------- 0 0.0 1.0 14 21
r 0.307333 1 0 ack 40 ------- 0 1.0 0.0 12 37
+ 0.307333 0 1 tcp 1040 ------- 0 0.0 1.0 25 38
+ 0.307333 0 1 tcp 1040 ------- 0 0.0 1.0 26 39
r 0.309 0 1 tcp 1040 ------- 0 0.0 1.0 13 20
+ 0.309 1 0 ack 40 ------- 0 1.0 0.0 13 40
- 0.309 1 0 ack 40 ------- 0 1.0 0.0 13 40
- 0.310933 0 1 tcp 1040 ------- 0 0.0 1.0 15 23
r 0.314267 1 0 ack 40 ------- 0 1.0 0.0 13 40
+ 0.314267 0 1 tcp 1040 ------- 0 0.0 1.0 27 41
+ 0.314267 0 1 tcp 1040 ------- 0 0.0 1.0 28 42
r 0.315933 0 1 tcp 1040 ------- 0 0.0 1.0 14 21
+ 0.315933 1 0 ack 40 ------- 0 1.0 0.0 14 43
- 0.315933 1 0 ack 40 ------- 0 1.0 0.0 14 43
- 0.317867 0 1 tcp 1040 ------- 0 0.0 1.0 16 24
r 0.3212 1 0 ack 40 ------- 0 1.0 0.0 14 43
+ 0.3212 0 1 tcp 1040 ------- 0 0.0 1.0 29 44
+ 0.3212 0 1 tcp 1040 ------- 0 0.0 1.0 30 45
r 0.322867 0 1 tcp 1040 ------- 0 0.0 1.0 15 23
+ 0.322867 1 0 ack 40 ------- 0 1.0 0.0 15 46
- 0.322867 1 0 ack 40 ------- 0 1.0 0.0 15 46
- 0.3248 0 1 tcp 1040 ------- 0 0.0 1.0 17 26
r 0.328133 1 0 ack 40 ------- 0 1.0 0.0 15 46
+ 0.328133 0 1 tcp 1040 ------- 0 0.0 1.0 31 47
+ 0.328133 0 1 tcp 1040 ------- 0 0.0 1.0 32 48
r 0.3298 0 1 tcp 1040 ------- 0 0.0 1.0 16 24
+ 0.3298 1 0 ack 40 ------- 0 1.0 0.0 16 49
- 0.3298 1 0 ack 40 ------- 0 1.0 0.0 16 49
- 0.331733 0 1 tcp 1040 ------- 0 0.0 1.0 18 27
r 0.335067 1 0 ack 40 ------- 0 1.0 0.0 16 49
+ 0.335067 0 1 tcp 1040 ------- 0 0.0 1.0 33 50
+ 0.335067 0 1 tcp 1040 ------- 0 0.0 1.0 34 51
r 0.336733 0 1 tcp 1040 ------- 0 0.0 1.0 17 26
+ 0.336733 1 0 ack 40 ------- 0 1.0 0.0 17 52
- 0.336733 1 0 ack 40 ------- 0 1.0 0.0 17 52
- 0.338667 0 1 tcp 1040 ------- 0 0.0 1.0 19 29
r 0.342 1 0 ack 40 ------- 0 1.0 0.0 17 52
+ 0.342 0 1 tcp 1040 ------- 0 0.0 1.0 35 53
+ 0.342 0 1 tcp 1040 ------- 0 0.0 1.0 36 54
r 0.343667 0 1 tcp 1040 ------- 0 0.0 1.0 18 27
+ 0.343667 1 0 ack 40 ------- 0 1.0 0.0 18 55
- 0.343667 1 0 ack 40 ------- 0 1.0 0.0 18 55
- 0.3456 0 1 tcp 1040 ------- 0 0.0 1.0 20 30
r 0.348933 1 0 ack 40 ------- 0 1.0 0.0 18 55
+ 0.348933 0 1 tcp 1040 ------- 0 0.0 1.0 37 56
+ 0.348933 0 1 tcp 1040 ------- 0 0.0 1.0 38 57
r 0.3506 0 1 tcp 1040 ------- 0 0.0 1.0 19 29
+ 0.3506 1 0 ack 40 ------- 0 1.0 0.0 19 58
- 0.3506 1 0 ack 40 ------- 0 1.0 0.0 19 58
- 0.352533 0 1 tcp 1040 ------- 0 0.0 1.0 21 32
r 0.355867 1 0 ack 40 ------- 0 1.0 0.0 19 58
+ 0.355867 0 1 tcp 1040 ------- 0 0.0 1.0 39 59
r 0.357533 0 1 tcp 1040 ------- 0 0.0 1.0 20 30
+ 0.357533 1 0 ack 40 ------- 0 1.0 0.0 20 60
- 0.357533 1 0 ack 40 ------- 0 1.0 0.0 20 60
- 0.359467 0 1 tcp 1040 ------- 0 0.0 1.0 22 33
r 0.3628 1 0 ack 40 ------- 0 1.0 0.0 20 60
+ 0.3628 0 1 tcp 1040 ------- 0 0.0 1.0 40 61
r 0.364467 0 1 tcp 1040 ------- 0 0.0 1.0 21 32
+ 0.364467 1 0 ack 40 ------- 0 1.0 0.0 21 62
- 0.364467 1 0 ack 40 ------- 0 1.0 0.0 21 62
- 0.3664 0 1 tcp 1040 ------- 0 0.0 1.0 23 35
r 0.369733 1 0 ack 40 ------- 0 1.0 0.0 21 62
+ 0.369733 0 1 tcp 1040 ------- 0 0.0 1.0 41 63
r 0.3714 0 1 tcp 1040 ------- 0 0.0 1.0 22 33
+ 0.3714 1 0 ack 40 ------- 0 1.0 0.0 22 64
- 0.3714 1 0 ack 40 ------- 0 1.0 0.0 22 64
- 0.373333 0 1 tcp 1040 ------- 0 0.0 1.0 24 36
r 0.376667 1 0 ack 40 ------- 0 1.0 0.0 22 64
+ 0.376667 0 1 tcp 1040 ------- 0 0.0 1.0 42 65
r 0.378333 0 1 tcp 1040 ------- 0 0.0 1.0 23 35
+ 0.378333 1 0 ack 40 ------- 0 1.0 0.0 23 66
- 0.378333 1 0 ack 40 ------- 0 1.0 0.0 23 66
- 0.380267 0 1 tcp 1040 ------- 0 0.0 1.0 25 38
r 0.3836 1 0 ack 40 ------- 0 1.0 0.0 23 66
+ 0.3836 0 1 tcp 1040 ------- 0 0.0 1.0 43 67
r 0.385267 0 1 tcp 1040 ------- 0 0.0 1.0 24 36
+ 0.385267 1 0 ack 40 ------- 0 1.0 0.0 24 68
- 0.385267 1 0 ack 40 ------- 0 1.0 0.0 24 68
- 0.3872 0 1 tcp 1040 ------- 0 0.0 1.0 26 39
r 0.390533 1 0 ack 40 ------- 0 1.0 0.0 24 68
+ 0.390533 0 1 tcp 1040 ------- 0 0.0 1.0 44 69
r 0.3922 0 1 tcp 1040 ------- 0 0.0 1.0 25 38
+ 0.3922 1 0 ack 40 ------- 0 1.0 0.0 25 70
- 0.3922 1 0 ack 40 ------- 0 1.0 0.0 25 70
- 0.394133 0 1 tcp 1040 ------- 0 0.0 1.0 27 41
r 0.397467 1 0 ack 40 ------- 0 1.0 0.0 25 70
+ 0.397467 0 1 tcp 1040 ------- 0 0.0 1.0 45 71
r 0.399133 0 1 tcp 1040 ------- 0 0.0 1.0 26 39
+ 0.399133 1 0 ack 40 ------- 0 1.0 0.0 26 72
- 0.399133 1 0 ack 40 ------- 0 1.0 0.0 26 72
- 0.401067 0 1 tcp 1040 ------- 0 0.0 1.0 28 42
r 0.4044 1 0 ack 40 ------- 0 1.0 0.0 26 72
+ 0.4044 0 1 tcp 1040 ------- 0 0.0 1.0 46 73
r 0.406067 0 1 tcp 1040 ------- 0 0.0 1.0 27 41
+ 0.406067 1 0 ack 40 ------- 0 1.0 0.0 27 74
- 0.406067 1 0 ack 40 ------- 0 1.0 0.0 27 74
- 0.408 0 1 tcp 1040 ------- 0 0.0 1.0 29 44
r 0.411333 1 0 ack 40 ------- 0 1.0 0.0 27 74
+ 0.411333 0 1 tcp 1040 ------- 0 0.0 1.0 47 75
r 0.413 0 1 tcp 1040 ------- 0 0.0 1.0 28 42
+ 0.413 1 0 ack 40 ------- 0 1.0 0.0 28 76
- 0.413 1 0 ack 40 ------- 0 1.0 0.0 28 76
- 0.414933 0 1 tcp 1040 ------- 0 0.0 1.0 30 45
r 0.418267 1 0 ack 40 ------- 0 1.0 0.0 28 76
+ 0.418267 0 1 tcp 1040 ------- 0 0.0 1.0 48 77
r 0.419933 0 1 tcp 1040 ------- 0 0.0 1.0 29 44
+ 0.419933 1 0 ack 40 ------- 0 1.0 0.0 29 78
- 0.419933 1 0 ack 40 ------- 0 1.0 0.0 29 78
- 0.421867 0 1 tcp 1040 ------- 0 0.0 1.0 31 47
r 0.4252 1 0 ack 40 ------- 0 1.0 0.0 29 78
+ 0.4252 0 1 tcp 1040 ------- 0 0.0 1.0 49 79
r 0.426867 0 1 tcp 1040 ------- 0 0.0 1.0 30 45
+ 0.426867 1 0 ack 40 ------- 0 1.0 0.0 30 80
- 0.426867 1 0 ack 40 ------- 0 1.0 0.0 30 80
- 0.4288 0 1 tcp 1040 ------- 0 0.0 1.0 32 48
r 0.432133 1 0 ack 40 ------- 0 1.0 0.0 30 80
+ 0.432133 0 1 tcp 1040 ------- 0 0.0 1.0 50 81
r 0.4338 0 1 tcp 1040 ------- 0 0.0 1.0 31 47
+ 0.4338 1 0 ack 40 ------- 0 1.0 0.0 31 82
- 0.4338 1 0 ack 40 ------- 0 1.0 0.0 31 82
- 0.435733 0 1 tcp 1040 ------- 0 0.0 1.0 33 50
r 0.439067 1 0 ack 40 ------- 0 1.0 0.0 31 82
+ 0.439067 0 1 tcp 1040 ------- 0 0.0 1.0 51 83
r 0.440733 0 1 tcp 1040 ------- 0 0.0 1.0 32 48
+ 0.440733 1 0 ack 40 ------- 0 1.0 0.0 32 84
- 0.440733 1 0 ack 40 ------- 0 1.0 0.0 32 84
- 0.442667 0 1 tcp 1040 ------- 0 0.0 1.0 34 51
r 0.446 1 0 ack 40 ------- 0 1.0 0.0 32 84
+ 0.446 0 1 tcp 1040 ------- 0 0.0 1.0 52 85
r 0.447667 0 1 tcp 1040 ------- 0 0.0 1.0 33 50
+ 0.447667 1 0 ack 40 ------- 0 1.0 0.0 33 86
- 0.447667 1 0 ack 40 ------- 0 1.0 0.0 33 86
- 0.4496 0 1 tcp 1040 ------- 0 0.0 1.0 35 53
r 0.452933 1 0 ack 40 ------- 0 1.0 0.0 33 86
+ 0.452933 0 1 tcp 1040 ------- 0 0.0 1.0 53 87
r 0.4546 0 1 tcp 1040 ------- 0 0.0 1.0 34 51
+ 0.4546 1 0 ack 40 ------- 0 1.0 0.0 34 88
- 0.4546 1 0 ack 40 ------- 0 1.0 0.0 34 88
- 0.456533 0 1 tcp 1040 ------- 0 0.0 1.0 36 54
r 0.459867 1 0 ack 40 ------- 0 1.0 0.0 34 88
+ 0.459867 0 1 tcp 1040 ------- 0 0.0 1.0 54 89
r 0.461533 0 1 tcp 1040 ------- 0 0.0 1.0 35 53
+ 0.461533 1 0 ack 40 ------- 0 1.0 0.0 35 90
- 0.461533 1 0 ack 40 ------- 0 1.0 0.0 35 90
- 0.463467 0 1 tcp 1040 ------- 0 0.0 1.0 37 56
r 0.4668 1 0 ack 40 ------- 0 1.0 0.0 35 90
+ 0.4668 0 1 tcp 1040 ------- 0 0.0 1.0 55 91
r 0.468467 0 1 tcp 1040 ------- 0 0.0 1.0 36 54
+ 0.468467 1 0 ack 40 ------- 0 1.0 0.0 36 92
- 0.468467 1 0 ack 40 ------- 0 1.0 0.0 36 92
- 0.4704 0 1 tcp 1040 ------- 0 0.0 1.0 38 57
r 0.473733 1 0 ack 40 ------- 0 1.0 0.0 36 92
+ 0.473733 0 1 tcp 1040 ------- 0 0.0 1.0 56 93
r 0.4754 0 1 tcp 1040 ------- 0 0.0 1.0 37 56
+ 0.4754 1 0 ack 40 ------- 0 1.0 0.0 37 94
- 0.4754 1 0 ack 40 ------- 0 1.0 0.0 37 94
- 0.477333 0 1 tcp 1040 ------- 0 0.0 1.0 39 59
r 0.480667 1 0 ack 40 ------- 0 1.0 0.0 37 94
+ 0.480667 0 1 tcp 1040 ------- 0 0.0 1.0 57 95
r 0.482333 0 1 tcp 1040 ------- 0 0.0 1.0 38 57
+ 0.482333 1 0 ack 40 ------- 0 1.0 0.0 38 96
- 0.482333 1 0 ack 40 ------- 0 1.0 0.0 38 96
- 0.484267 0 1 tcp 1040 ------- 0 0.0 1.0 40 61
r 0.4876 1 0 ack 40 ------- 0 1.0 0.0 38 96
+ 0.4876 0 1 tcp 1040 ------- 0 0.0 1.0 58 97
r 0.489267 0 1 tcp 1040 ------- 0 0.0 1.0 39 59
+ 0.489267 1 0 ack 40 ------- 0 1.0 0.0 39 98
- 0.489267 1 0 ack 40 ------- 0 1.0 0.0 39 98
- 0.4912 0 1 tcp 1040 ------- 0 0.0 1.0 41 63
r 0.494533 1 0 ack 40 ------- 0 1.0 0.0 39 98
+ 0.494533 0 1 tcp 1040 ------- 0 0.0 1.0 59 99
r 0.4962 0 1 tcp 1040 ------- 0 0.0 1.0 40 61
+ 0.4962 1 0 ack 40 ------- 0 1.0 0.0 40 100
- 0.4962 1 0 ack 40 ------- 0 1.0 0.0 40 100
- 0.498133 0 1 tcp 1040 ------- 0 0.0 1.0 42 65
r 0.501467 1 0 ack 40 ------- 0 1.0 0.0 40 100
+ 0.501467 0 1 tcp 1040 ------- 0 0.0 1.0 60 101
r 0.503133 0 1 tcp 1040 ------- 0 0.0 1.0 41 63
+ 0.503133 1 0 ack 40 ------- 0 1.0 0.0 41 102
- 0.503133 1 0 ack 40 ------- 0 1.0 0.0 41 102
- 0.505067 0 1 tcp 1040 ------- 0 0.0 1.0 43 67
r 0.5084 1 0 ack 40 ------- 0 1.0 0.0 41 102
+ 0.5084 0 1 tcp 1040 ------- 0 0.0 1.0 61 103
r 0.510067 0 1 tcp 1040 ------- 0 0.0 1.0 42 65
+ 0.510067 1 0 ack 40 ------- 0 1.0 0.0 42 104
- 0.510067 1 0 ack 40 ------- 0 1.0 0.0 42 104
- 0.512 0 1 tcp 1040 ------- 0 0.0 1.0 44 69
r 0.515333 1 0 ack 40 ------- 0 1.0 0.0 42 104
+ 0.515333 0 1 tcp 1040 ------- 0 0.0 1.0 62 105
r 0.517 0 1 tcp 1040 ------- 0 0.0 1.0 43 67
+ 0.517 1 0 ack 40 ------- 0 1.0 0.0 43 106
- 0.517 1 0 ack 40 ------- 0 1.0 0.0 43 106
- 0.518933 0 1 tcp 1040 ------- 0 0.0 1.0 45 71
r 0.522267 1 0 ack 40 ------- 0 1.0 0.0 43 106
+ 0.522267 0 1 tcp 1040 ------- 0 0.0 1.0 63 107
r 0.523933 0 1 tcp 1040 ------- 0 0.0 1.0 44 69
+ 0.523933 1 0 ack 40 ------- 0 1.0 0.0 44 108
- 0.523933 1 0 ack 40 ------- 0 1.0 0.0 44 108
- 0.525867 0 1 tcp 1040 ------- 0 0.0 1.0 46 73
r 0.5292 1 0 ack 40 ------- 0 1.0 0.0 44 108
+ 0.5292 0 1 tcp 1040 ------- 0 0.0 1.0 64 109
r 0.530867 0 1 tcp 1040 ------- 0 0.0 1.0 45 71
+ 0.530867 1 0 ack 40 ------- 0 1.0 0.0 45 110
- 0.530867 1 0 ack 40 ------- 0 1.0 0.0 45 110
- 0.5328 0 1 tcp 1040 ------- 0 0.0 1.0 47 75
r 0.536133 1 0 ack 40 ------- 0 1.0 0.0 45 110
+ 0.536133 0 1 tcp 1040 ------- 0 0.0 1.0 65 111
r 0.5378 0 1 tcp 1040 ------- 0 0.0 1.0 46 73
+ 0.5378 1 0 ack 40 ------- 0 1.0 0.0 46 112
- 0.5378 1 0 ack 40 ------- 0 1.0 0.0 46 112
- 0.539733 0 1 tcp 1040 ------- 0 0.0 1.0 48 77
r 0.543067 1 0 ack 40 ------- 0 1.0 0.0 46 112
+ 0.543067 0 1 tcp 1040 ------- 0 0.0 1.0 66 113
r 0.544733 0 1 tcp 1040 ------- 0 0.0 1.0 47 75
+ 0.544733 1 0 ack 40 ------- 0 1.0 0.0 47 114
- 0.544733 1 0 ack 40 ------- 0 1.0 0.0 47 114
- 0.546667 0 1 tcp 1040 ------- 0 0.0 1.0 49 79
r 0.55 1 0 ack 40 ------- 0 1.0 0.0 47 114
+ 0.55 0 1 tcp 1040 ------- 0 0.0 1.0 67 115
r 0.551667 0 1 tcp 1040 ------- 0 0.0 1.0 48 77
+ 0.551667 1 0 ack 40 ------- 0 1.0 0.0 48 116
- 0.551667 1 0 ack 40 ------- 0 1.0 0.0 48 116
- 0.5536 0 1 tcp 1040 ------- 0 0.0 1.0 50 81
r 0.556933 1 0 ack 40 ------- 0 1.0 0.0 48 116
+ 0.556933 0 1 tcp 1040 ------- 0 0.0 1.0 68 117
r 0.5586 0 1 tcp 1040 ------- 0 0.0 1.0 49 79
+ 0.5586 1 0 ack 40 ------- 0 1.0 0.0 49 118
- 0.5586 1 0 ack 40 ------- 0 1.0 0.0 49 118
- 0.560533 0 1 tcp 1040 ------- 0 0.0 1.0 51 83
r 0.563867 1 0 ack 40 ------- 0 1.0 0.0 49 118
+ 0.563867 0 1 tcp 1040 ------- 0 0.0 1.0 69 119
r 0.565533 0 1 tcp 1040 ------- 0 0.0 1.0 50 81
+ 0.565533 1 0 ack 40 ------- 0 1.0 0.0 50 120
- 0.565533 1 0 ack 40 ------- 0 1.0 0.0 50 120
- 0.567467 0 1 tcp 1040 ------- 0 0.0 1.0 52 85
r 0.5708 1 0 ack 40 ------- 0 1.0 0.0 50 120
+ 0.5708 0 1 tcp 1040 ------- 0 0.0 1.0 70 121
r 0.572467 0 1 tcp 1040 ------- 0 0.0 1.0 51 83
+ 0.572467 1 0 ack 40 ------- 0 1.0 0.0 51 122
- 0.572467 1 0 ack 40 ------- 0 1.0 0.0 51 122
- 0.5744 0 1 tcp 1040 ------- 0 0.0 1.0 53 87
r 0.577733 1 0 ack 40 ------- 0 1.0 0.0 51 122
+ 0.577733 0 1 tcp 1040 ------- 0 0.0 1.0 71 123
r 0.5794 0 1 tcp 1040 ------- 0 0.0 1.0 52 85
+ 0.5794 1 0 ack 40 ------- 0 1.0 0.0 52 124
- 0.5794 1 0 ack 40 ------- 0 1.0 0.0 52 124
- 0.581333 0 1 tcp 1040 ------- 0 0.0 1.0 54 89
r 0.584667 1 0 ack 40 ------- 0 1.0 0.0 52 124
+ 0.584667 0 1 tcp 1040 ------- 0 0.0 1.0 72 125
r 0.586333 0 1 tcp 1040 ------- 0 0.0 1.0 53 87
+ 0.586333 1 0 ack 40 ------- 0 1.0 0.0 53 126
- 0.586333 1 0 ack 40 ------- 0 1.0 0.0 53 126
- 0.588267 0 1 tcp 1040 ------- 0 0.0 1.0 55 91
r 0.5916 1 0 ack 40 ------- 0 1.0 0.0 53 126
+ 0.5916 0 1 tcp 1040 ------- 0 0.0 1.0 73 127
r 0.593267 0 1 tcp 1040 ------- 0 0.0 1.0 54 89
+ 0.593267 1 0 ack 40 ------- 0 1.0 0.0 54 128
- 0.593267 1 0 ack 40 ------- 0 1.0 0.0 54 128
- 0.5952 0 1 tcp 1040 ------- 0 0.0 1.0 56 93
r 0.598533 1 0 ack 40 ------- 0 1.0 0.0 54 128
+ 0.598533 0 1 tcp 1040 ------- 0 0.0 1.0 74 129
r 0.6002 0 1 tcp 1040 ------- 0 0.0 1.0 55 91
+ 0.6002 1 0 ack 40 ------- 0 1.0 0.0 55 130
- 0.6002 1 0 ack 40 ------- 0 1.0 0.0 55 130
- 0.602133 0 1 tcp 1040 ------- 0 0.0 1.0 57 95
r 0.605467 1 0 ack 40 ------- 0 1.0 0.0 55 130
+ 0.605467 0 1 tcp 1040 ------- 0 0.0 1.0 75 131
r 0.607133 0 1 tcp 1040 ------- 0 0.0 1.0 56 93
+ 0.607133 1 0 ack 40 ------- 0 1.0 0.0 56 132
- 0.607133 1 0 ack 40 ------- 0 1.0 0.0 56 132
- 0.609067 0 1 tcp 1040 ------- 0 0.0 1.0 58 97
r 0.6124 1 0 ack 40 ------- 0 1.0 0.0 56 132
+ 0.6124 0 1 tcp 1040 ------- 0 0.0 1.0 76 133
r 0.614067 0 1 tcp 1040 ------- 0 0.0 1.0 57 95
+ 0.614067 1 0 ack 40 ------- 0 1.0 0.0 57 134
- 0.614067 1 0 ack 40 ------- 0 1.0 0.0 57 134
- 0.616 0 1 tcp 1040 ------- 0 0.0 1.0 59 99
r 0.619333 1 0 ack 40 ------- 0 1.0 0.0 57 134
+ 0.619333 0 1 tcp 1040 ------- 0 0.0 1.0 77 135
r 0.621 0 1 tcp 1040 ------- 0 0.0 1.0 58 97
+ 0.621 1 0 ack 40 ------- 0 1.0 0.0 58 136
- 0.621 1 0 ack 40 ------- 0 1.0 0.0 58 136
- 0.622933 0 1 tcp 1040 ------- 0 0.0 1.0 60 101
r 0.626267 1 0 ack 40 ------- 0 1.0 0.0 58 136
+ 0.626267 0 1 tcp 1040 ------- 0 0.0 1.0 78 137
r 0.627933 0 1 tcp 1040 ------- 0 0.0 1.0 59 99
+ 0.627933 1 0 ack 40 ------- 0 1.0 0.0 59 138
- 0.627933 1 0 ack 40 ------- 0 1.0 0.0 59 138
- 0.629867 0 1 tcp 1040 ------- 0 0.0 1.0 61 103
r 0.6332 1 0 ack 40 ------- 0 1.0 0.0 59 138
+ 0.6332 0 1 tcp 1040 ------- 0 0.0 1.0 79 139
r 0.634867 0 1 tcp 1040 ------- 0 0.0 1.0 60 101
+ 0.634867 1 0 ack 40 ------- 0 1.0 0.0 60 140
- 0.634867 1 0 ack 40 ------- 0 1.0 0.0 60 140
- 0.6368 0 1 tcp 1040 ------- 0 0.0 1.0 62 105
r 0.640133 1 0 ack 40 ------- 0 1.0 0.0 60 140
+ 0.640133 0 1 tcp 1040 ------- 0 0.0 1.0 80 141
r 0.6418 0 1 tcp 1040 ------- 0 0.0 1.0 61 103
+ 0.6418 1 0 ack 40 ------- 0 1.0 0.0 61 142
- 0.6418 1 0 ack 40 ------- 0 1.0 0.0 61 142
- 0.643733 0 1 tcp 1040 ------- 0 0.0 1.0 63 107
r 0.647067 1 0 ack 40 ------- 0 1.0 0.0 61 142
+ 0.647067 0 1 tcp 1040 ------- 0 0.0 1.0 81 143
r 0.648733 0 1 tcp 1040 ------- 0 0.0 1.0 62 105
+ 0.648733 1 0 ack 40 ------- 0 1.0 0.0 62 144
- 0.648733 1 0 ack 40 ------- 0 1.0 0.0 62 144
- 0.650667 0 1 tcp 1040 ------- 0 0.0 1.0 64 109
r 0.654 1 0 ack 40 ------- 0 1.0 0.0 62 144
+ 0.654 0 1 tcp 1040 ------- 0 0.0 1.0 82 145
r 0.655667 0 1 tcp 1040 ------- 0 0.0 1.0 63 107
+ 0.655667 1 0 ack 40 ------- 0 1.0 0.0 63 146
- 0.655667 1 0 ack 40 ------- 0 1.0 0.0 63 146
- 0.6576 0 1 tcp 1040 ------- 0 0.0 1.0 65 111
r 0.660933 1 0 ack 40 ------- 0 1.0 0.0 63 146
+ 0.660933 0 1 tcp 1040 ------- 0 0.0 1.0 83 147
r 0.6626 0 1 tcp 1040 ------- 0 0.0 1.0 64 109
+ 0.6626 1 0 ack 40 ------- 0 1.0 0.0 64 148
- 0.6626 1 0 ack 40 ------- 0 1.0 0.0 64 148
- 0.664533 0 1 tcp 1040 ------- 0 0.0 1.0 66 113
r 0.667867 1 0 ack 40 ------- 0 1.0 0.0 64 148
+ 0.667867 0 1 tcp 1040 ------- 0 0.0 1.0 84 149
r 0.669533 0 1 tcp 1040 ------- 0 0.0 1.0 65 111
+ 0.669533 1 0 ack 40 ------- 0 1.0 0.0 65 150
- 0.669533 1 0 ack 40 ------- 0 1.0 0.0 65 150
- 0.671467 0 1 tcp 1040 ------- 0 0.0 1.0 67 115
r 0.6748 1 0 ack 40 ------- 0 1.0 0.0 65 150
+ 0.6748 0 1 tcp 1040 ------- 0 0.0 1.0 85 151
r 0.676467 0 1 tcp 1040 ------- 0 0.0 1.0 66 113
+ 0.676467 1 0 ack 40 ------- 0 1.0 0.0 66 152
- 0.676467 1 0 ack 40 ------- 0 1.0 0.0 66 152
- 0.6784 0 1 tcp 1040 ------- 0 0.0 1.0 68 117
r 0.681733 1 0 ack 40 ------- 0 1.0 0.0 66 152
+ 0.681733 0 1 tcp 1040 ------- 0 0.0 1.0 86 153
r 0.6834 0 1 tcp 1040 ------- 0 0.0 1.0 67 115
+ 0.6834 1 0 ack 40 ------- 0 1.0 0.0 67 154
- 0.6834 1 0 ack 40 ------- 0 1.0 0.0 67 154
- 0.685333 0 1 tcp 1040 ------- 0 0.0 1.0 69 119
r 0.688667 1 0 ack 40 ------- 0 1.0 0.0 67 154
+ 0.688667 0 1 tcp 1040 ------- 0 0.0 1.0 87 155
r 0.690333 0 1 tcp 1040 ------- 0 0.0 1.0 68 117
+ 0.690333 1 0 ack 40 ------- 0 1.0 0.0 68 156
- 0.690333 1 0 ack 40 ------- 0 1.0 0.0 68 156
- 0.692267 0 1 tcp 1040 ------- 0 0.0 1.0 70 121
r 0.6956 1 0 ack 40 ------- 0 1.0 0.0 68 156
+ 0.6956 0 1 tcp 1040 ------- 0 0.0 1.0 88 157
r 0.697267 0 1 tcp 1040 ------- 0 0.0 1.0 69 119
+ 0.697267 1 0 ack 40 ------- 0 1.0 0.0 69 158
- 0.697267 1 0 ack 40 ------- 0 1.0 0.0 69 158
- 0.6992 0 1 tcp 1040 ------- 0 0.0 1.0 71 123
r 0.702533 1 0 ack 40 ------- 0 1.0 0.0 69 158
+ 0.702533 0 1 tcp 1040 ------- 0 0.0 1.0 89 159
r 0.7042 0 1 tcp 1040 ------- 0 0.0 1.0 70 121
+ 0.7042 1 0 ack 40 ------- 0 1.0 0.0 70 160
- 0.7042 1 0 ack 40 ------- 0 1.0 0.0 70 160
- 0.706133 0 1 tcp 1040 ------- 0 0.0 1.0 72 125
r 0.709467 1 0 ack 40 ------- 0 1.0 0.0 70 160
+ 0.709467 0 1 tcp 1040 ------- 0 0.0 1.0 90 161
r 0.711133 0 1 tcp 1040 ------- 0 0.0 1.0 71 123
+ 0.711133 1 0 ack 40 ------- 0 1.0 0.0 71 162
- 0.711133 1 0 ack 40 ------- 0 1.0 0.0 71 162
- 0.713067 0 1 tcp 1040 ------- 0 0.0 1.0 73 127
r 0.7164 1 0 ack 40 ------- 0 1.0 0.0 71 162
+ 0.7164 0 1 tcp 1040 ------- 0 0.0 1.0 91 163
r 0.718067 0 1 tcp 1040 ------- 0 0.0 1.0 72 125
+ 0.718067 1 0 ack 40 ------- 0 1.0 0.0 72 164
- 0.718067 1 0 ack 40 ------- 0 1.0 0.0 72 164
- 0.72 0 1 tcp 1040 ------- 0 0.0 1.0 74 129
r 0.723333 1 0 ack 40 ------- 0 1.0 0.0 72 164
+ 0.723333 0 1 tcp 1040 ------- 0 0.0 1.0 92 165
r 0.725 0 1 tcp 1040 ------- 0 0.0 1.0 73 127
+ 0.725 1 0 ack 40 ------- 0 1.0 0.0 73 166
- 0.725 1 0 ack 40 ------- 0 1.0 0.0 73 166
- 0.726933 0 1 tcp 1040 ------- 0 0.0 1.0 75 131
r 0.730267 1 0 ack 40 ------- 0 1.0 0.0 73 166
+ 0.730267 0 1 tcp 1040 ------- 0 0.0 1.0 93 167
r 0.731933 0 1 tcp 1040 ------- 0 0.0 1.0 74 129
+ 0.731933 1 0 ack 40 ------- 0 1.0 0.0 74 168
- 0.731933 1 0 ack 40 ------- 0 1.0 0.0 74 168
- 0.733867 0 1 tcp 1040 ------- 0 0.0 1.0 76 133
r 0.7372 1 0 ack 40 ------- 0 1.0 0.0 74 168
+ 0.7372 0 1 tcp 1040 ------- 0 0.0 1.0 94 169
r 0.738867 0 1 tcp 1040 ------- 0 0.0 1.0 75 131
+ 0.738867 1 0 ack 40 ------- 0 1.0 0.0 75 170
- 0.738867 1 0 ack 40 ------- 0 1.0 0.0 75 170
- 0.7408 0 1 tcp 1040 ------- 0 0.0 1.0 77 135
r 0.744133 1 0 ack 40 ------- 0 1.0 0.0 75 170
+ 0.744133 0 1 tcp 1040 ------- 0 0.0 1.0 95 171
r 0.7458 0 1 tcp 1040 ------- 0 0.0 1.0 76 133
+ 0.7458 1 0 ack 40 ------- 0 1.0 0.0 76 172
- 0.7458 1 0 ack 40 ------- 0 1.0 0.0 76 172
- 0.747733 0 1 tcp 1040 ------- 0 0.0 1.0 78 137
r 0.751067 1 0 ack 40 ------- 0 1.0 0.0 76 172
+ 0.751067 0 1 tcp 1040 ------- 0 0.0 1.0 96 173
r 0.752733 0 1 tcp 1040 ------- 0 0.0 1.0 77 135
+ 0.752733 1 0 ack 40 ------- 0 1.0 0.0 77 174
- 0.752733 1 0 ack 40 ------- 0 1.0 0.0 77 174
- 0.754667 0 1 tcp 1040 ------- 0 0.0 1.0 79 139
r 0.758 1 0 ack 40 ------- 0 1.0 0.0 77 174
+ 0.758 0 1 tcp 1040 ------- 0 0.0 1.0 97 175
r 0.759667 0 1 tcp 1040 ------- 0 0.0 1.0 78 137
+ 0.759667 1 0 ack 40 ------- 0 1.0 0.0 78 176
- 0.759667 1 0 ack 40 ------- 0 1.0 0.0 78 176
- 0.7616 0 1 tcp 1040 ------- 0 0.0 1.0 80 141
r 0.764933 1 0 ack 40 ------- 0 1.0 0.0 78 176
+ 0.764933 0 1 tcp 1040 ------- 0 0.0 1.0 98 177
r 0.7666 0 1 tcp 1040 ------- 0 0.0 1.0 79 139
+ 0.7666 1 0 ack 40 ------- 0 1.0 0.0 79 178
- 0.7666 1 0 ack 40 ------- 0 1.0 0.0 79 178
- 0.768533 0 1 tcp 1040 ------- 0 0.0 1.0 81 143
r 0.771867 1 0 ack 40 ------- 0 1.0 0.0 79 178
+ 0.771867 0 1 tcp 1040 ------- 0 0.0 1.0 99 179
r 0.773533 0 1 tcp 1040 ------- 0 0.0 1.0 80 141
+ 0.773533 1 0 ack 40 ------- 0 1.0 0.0 80 180
- 0.773533 1 0 ack 40 ------- 0 1.0 0.0 80 180
- 0.775467 0 1 tcp 1040 ------- 0 0.0 1.0 82 145
r 0.7788 1 0 ack 40 ------- 0 1.0 0.0 80 180
+ 0.7788 0 1 tcp 1040 ------- 0 0.0 1.0 100 181
r 0.780467 0 1 tcp 1040 ------- 0 0.0 1.0 81 143
+ 0.780467 1 0 ack 40 ------- 0 1.0 0.0 81 182
- 0.780467 1 0 ack 40 ------- 0 1.0 0.0 81 182
- 0.7824 0 1 tcp 1040 ------- 0 0.0 1.0 83 147
r 0.785733 1 0 ack 40 ------- 0 1.0 0.0 81 182
+ 0.785733 0 1 tcp 1040 ------- 0 0.0 1.0 101 183
r 0.7874 0 1 tcp 1040 ------- 0 0.0 1.0 82 145
+ 0.7874 1 0 ack 40 ------- 0 1.0 0.0 82 184
- 0.7874 1 0 ack 40 ------- 0 1.0 0.0 82 184
- 0.789333 0 1 tcp 1040 ------- 0 0.0 1.0 84 149
r 0.792667 1 0 ack 40 ------- 0 1.0 0.0 82 184
+ 0.792667 0 1 tcp 1040 ------- 0 0.0 1.0 102 185
r 0.794333 0 1 tcp 1040 ------- 0 0.0 1.0 83 147
+ 0.794333 1 0 ack 40 ------- 0 1.0 0.0 83 186
- 0.794333 1 0 ack 40 ------- 0 1.0 0.0 83 186
- 0.796267 0 1 tcp 1040 ------- 0 0.0 1.0 85 151
r 0.7996 1 0 ack 40 ------- 0 1.0 0.0 83 186
+ 0.7996 0 1 tcp 1040 ------- 0 0.0 1.0 103 187
r 0.801267 0 1 tcp 1040 ------- 0 0.0 1.0 84 149
+ 0.801267 1 0 ack 40 ------- 0 1.0 0.0 84 188
- 0.801267 1 0 ack 40 ------- 0 1.0 0.0 84 188
- 0.8032 0 1 tcp 1040 ------- 0 0.0 1.0 86 153
r 0.806533 1 0 ack 40 ------- 0 1.0 0.0 84 188
+ 0.806533 0 1 tcp 1040 ------- 0 0.0 1.0 104 189
r 0.8082 0 1 tcp 1040 ------- 0 0.0 1.0 85 151
+ 0.8082 1 0 ack 40 ------- 0 1.0 0.0 85 190
- 0.8082 1 0 ack 40 ------- 0 1.0 0.0 85 190
- 0.810133 0 1 tcp 1040 ------- 0 0.0 1.0 87 155
r 0.813467 1 0 ack 40 ------- 0 1.0 0.0 85 190
+ 0.813467 0 1 tcp 1040 ------- 0 0.0 1.0 105 191
r 0.815133 0 1 tcp 1040 ------- 0 0.0 1.0 86 153
+ 0.815133 1 0 ack 40 ------- 0 1.0 0.0 86 192
- 0.815133 1 0 ack 40 ------- 0 1.0 0.0 86 192
- 0.817067 0 1 tcp 1040 ------- 0 0.0 1.0 88 157
r 0.8204 1 0 ack 40 ------- 0 1.0 0.0 86 192
+ 0.8204 0 1 tcp 1040 ------- 0 0.0 1.0 106 193
r 0.822067 0 1 tcp 1040 ------- 0 0.0 1.0 87 155
+ 0.822067 1 0 ack 40 ------- 0 1.0 0.0 87 194
- 0.822067 1 0 ack 40 ------- 0 1.0 0.0 87 194
- 0.824 0 1 tcp 1040 ------- 0 0.0 1.0 89 159
r 0.827333 1 0 ack 40 ------- 0 1.0 0.0 87 194
+ 0.827333 0 1 tcp 1040 ------- 0 0.0 1.0 107 195
r 0.829 0 1 tcp 1040 ------- 0 0.0 1.0 88 157
+ 0.829 1 0 ack 40 ------- 0 1.0 0.0 88 196
- 0.829 1 0 ack 40 ------- 0 1.0 0.0 88 196
- 0.830933 0 1 tcp 1040 ------- 0 0.0 1.0 90 161
r 0.834267 1 0 ack 40 ------- 0 1.0 0.0 88 196
+ 0.834267 0 1 tcp 1040 ------- 0 0.0 1.0 108 197
r 0.835933 0 1 tcp 1040 ------- 0 0.0 1.0 89 159
+ 0.835933 1 0 ack 40 ------- 0 1.0 0.0 89 198
- 0.835933 1 0 ack 40 ------- 0 1.0 0.0 89 198
- 0.837867 0 1 tcp 1040 ------- 0 0.0 1.0 91 163
r 0.8412 1 0 ack 40 ------- 0 1.0 0.0 89 198
+ 0.8412 0 1 tcp 1040 ------- 0 0.0 1.0 109 199
r 0.842867 0 1 tcp 1040 ------- 0 0.0 1.0 90 161
+ 0.842867 1 0 ack 40 ------- 0 1.0 0.0 90 200
- 0.842867 1 0 ack 40 ------- 0 1.0 0.0 90 200
- 0.8448 0 1 tcp 1040 ------- 0 0.0 1.0 92 165
r 0.848133 1 0 ack 40 ------- 0 1.0 0.0 90 200
+ 0.848133 0 1 tcp 1040 ------- 0 0.0 1.0 110 201
r 0.8498 0 1 tcp 1040 ------- 0 0.0 1.0 91 163
+ 0.8498 1 0 ack 40 ------- 0 1.0 0.0 91 202
- 0.8498 1 0 ack 40 ------- 0 1.0 0.0 91 202
- 0.851733 0 1 tcp 1040 ------- 0 0.0 1.0 93 167
r 0.855067 1 0 ack 40 ------- 0 1.0 0.0 91 202
+ 0.855067 0 1 tcp 1040 ------- 0 0.0 1.0 111 203
r 0.856733 0 1 tcp 1040 ------- 0 0.0 1.0 92 165
+ 0.856733 1 0 ack 40 ------- 0 1.0 0.0 92 204
- 0.856733 1 0 ack 40 ------- 0 1.0 0.0 92 204
- 0.858667 0 1 tcp 1040 ------- 0 0.0 1.0 94 169
r 0.862 1 0 ack 40 ------- 0 1.0 0.0 92 204
+ 0.862 0 1 tcp 1040 ------- 0 0.0 1.0 112 205
r 0.863667 0 1 tcp 1040 ------- 0 0.0 1.0 93 167
+ 0.863667 1 0 ack 40 ------- 0 1.0 0.0 93 206
- 0.863667 1 0 ack 40 ------- 0 1.0 0.0 93 206
- 0.8656 0 1 tcp 1040 ------- 0 0.0 1.0 95 171
r 0.868933 1 0 ack 40 ------- 0 1.0 0.0 93 206
+ 0.868933 0 1 tcp 1040 ------- 0 0.0 1.0 113 207
r 0.8706 0 1 tcp 1040 ------- 0 0.0 1.0 94 169
+ 0.8706 1 0 ack 40 ------- 0 1.0 0.0 94 208
- 0.8706 1 0 ack 40 ------- 0 1.0 0.0 94 208
- 0.872533 0 1 tcp 1040 ------- 0 0.0 1.0 96 173
r 0.875867 1 0 ack 40 ------- 0 1.0 0.0 94 208
+ 0.875867 0 1 tcp 1040 ------- 0 0.0 1.0 114 209
r 0.877533 0 1 tcp 1040 ------- 0 0.0 1.0 95 171
+ 0.877533 1 0 ack 40 ------- 0 1.0 0.0 95 210
- 0.877533 1 0 ack 40 ------- 0 1.0 0.0 95 210
- 0.879467 0 1 tcp 1040 ------- 0 0.0 1.0 97 175
r 0.8828 1 0 ack 40 ------- 0 1.0 0.0 95 210
+ 0.8828 0 1 tcp 1040 ------- 0 0.0 1.0 115 211
r 0.884467 0 1 tcp 1040 ------- 0 0.0 1.0 96 173
+ 0.884467 1 0 ack 40 ------- 0 1.0 0.0 96 212
- 0.884467 1 0 ack 40 ------- 0 1.0 0.0 96 212
- 0.8864 0 1 tcp 1040 ------- 0 0.0 1.0 98 177
r 0.889733 1 0 ack 40 ------- 0 1.0 0.0 96 212
+ 0.889733 0 1 tcp 1040 ------- 0 0.0 1.0 116 213
r 0.8914 0 1 tcp 1040 ------- 0 0.0 1.0 97 175
+ 0.8914 1 0 ack 40 ------- 0 1.0 0.0 97 214
- 0.8914 1 0 ack 40 ------- 0 1.0 0.0 97 214
- 0.893333 0 1 tcp 1040 ------- 0 0.0 1.0 99 179
r 0.896667 1 0 ack 40 ------- 0 1.0 0.0 97 214
+ 0.896667 0 1 tcp 1040 ------- 0 0.0 1.0 117 215
r 0.898333 0 1 tcp 1040 ------- 0 0.0 1.0 98 177
+ 0.898333 1 0 ack 40 ------- 0 1.0 0.0 98 216
- 0.898333 1 0 ack 40 ------- 0 1.0 0.0 98 216
- 0.900267 0 1 tcp 1040 ------- 0 0.0 1.0 100 181
r 0.9036 1 0 ack 40 ------- 0 1.0 0.0 98 216
+ 0.9036 0 1 tcp 1040 ------- 0 0.0 1.0 118 217
r 0.905267 0 1 tcp 1040 ------- 0 0.0 1.0 99 179
+ 0.905267 1 0 ack 40 ------- 0 1.0 0.0 99 218
- 0.905267 1 0 ack 40 ------- 0 1.0 0.0 99 218
- 0.9072 0 1 tcp 1040 ------- 0 0.0 1.0 101 183
r 0.910533 1 0 ack 40 ------- 0 1.0 0.0 99 218
+ 0.910533 0 1 tcp 1040 ------- 0 0.0 1.0 119 219
r 0.9122 0 1 tcp 1040 ------- 0 0.0 1.0 100 181
+ 0.9122 1 0 ack 40 ------- 0 1.0 0.0 100 220
- 0.9122 1 0 ack 40 ------- 0 1.0 0.0 100 220
- 0.914133 0 1 tcp 1040 ------- 0 0.0 1.0 102 185
r 0.917467 1 0 ack 40 ------- 0 1.0 0.0 100 220
+ 0.917467 0 1 tcp 1040 ------- 0 0.0 1.0 120 221
r 0.919133 0 1 tcp 1040 ------- 0 0.0 1.0 101 183
+ 0.919133 1 0 ack 40 ------- 0 1.0 0.0 101 222
- 0.919133 1 0 ack 40 ------- 0 1.0 0.0 101 222
- 0.921067 0 1 tcp 1040 ------- 0 0.0 1.0 103 187
r 0.9244 1 0 ack 40 ------- 0 1.0 0.0 101 222
+ 0.9244 0 1 tcp 1040 ------- 0 0.0 1.0 121 223
r 0.926067 0 1 tcp 1040 ------- 0 0.0 1.0 102 185
+ 0.926067 1 0 ack 40 ------- 0 1.0 0.0 102 224
- 0.926067 1 0 ack 40 ------- 0 1.0 0.0 102 224
- 0.928 0 1 tcp 1040 ------- 0 0.0 1.0 104 189
r 0.931333 1 0 ack 40 ------- 0 1.0 0.0 102 224
+ 0.931333 0 1 tcp 1040 ------- 0 0.0 1.0 122 225
r 0.933 0 1 tcp 1040 ------- 0 0.0 1.0 103 187