r 1.000000000 _0_ RTR  --- 0 cbr 1000 [0 0 0 0] ------- [0:0 1:0 32 0] [0] 0 0
s 1.000000000 _0_ RTR  --- 0 AODV 48 [0 0 0 0] ------- [0:255 -1:255 30 0] [0x2 1 1 [1 0] [0 4]] (REQUEST)
r 1.001408667 _1_ RTR  --- 0 AODV 48 [0 ffffffff 0 800] ------- [0:255 -1:255 30 0] [0x2 1 1 [1 0] [0 4]] (REQUEST)
s 1.001408667 _1_ RTR  --- 0 AODV 44 [0 0 0 0] ------- [1:255 0:255 30 0] [0x4 1 [1 4] 10.000000] (REPLY)
r 1.006336333 _0_ RTR  --- 0 AODV 44 [13a 0 1 800] ------- [1:255 0:255 30 0] [0x4 1 [1 4] 10.000000] (REPLY)
s 1.006336333 _0_ RTR  --- 0 cbr 1020 [0 0 0 0] ------- [0:0 1:0 30 1] [0] 0 0
r 1.050000000 _0_ RTR  --- 1 cbr 1000 [0 0 0 0] ------- [0:0 1:0 32 0] [1] 0 0
s 1.050000000 _0_ RTR  --- 1 cbr 1020 [0 0 0 0] ------- [0:0 1:0 30 1] [1] 0 0
r 1.100000000 _0_ RTR  --- 2 cbr 1000 [0 0 0 0] ------- [0:0 1:0 32 0] [2] 0 0
s 1.100000000 _0_ RTR  --- 2 cbr 1020 [0 0 0 0] ------- [0:0 1:0 30 1] [2] 0 0
r 1.150000000 _0_ RTR  --- 3 cbr 1000 [0 0 0 0] ------- [0:0 1:0 32 0] [3] 0 0
s 1.150000000 _0_ RTR  --- 3 cbr 1020 [0 0 0 0] ------- [0:0 1:0 30 1] [3] 0 0
r 1.200000000 _0_ RTR  --- 4 cbr 1000 [0 0 0 0] ------- [0:0 1:0 32 0] [4] 0 0
s 1.200000000 _0_ RTR  --- 4 cbr 1020 [0 0 0 0] ------- [0:0 1:0 30 1] [4] 0 0
r 1.250000000 _0_ RTR  --- 5 cbr 1000 [0 0 0 0] ------- [0:0 1:0 32 0] [5] 0 0
s 1.250000000 _0_ RTR  --- 5 cbr 1020 [0 0 0 0] ------- [0:0 1:0 30 1] [5] 0 0
r 1.300000000 _0_ RTR  --- 6 cbr 1000 [0 0 0 0] ------- [0:0 1:0 32 0] [6] 0 0
s 1.300000000 _0_ RTR  --- 6 cbr 1020 [0 0 0 0] ------- [0:0 1:0 30 1] [6] 0 0
r 1.350000000 _0_ RTR  --- 7 cbr 1000 [0 0 0 0] ------- [0:0 1:0 32 0] [7] 0 0
s 1.350000000 _0_ RTR  --- 7 cbr 1020 [0 0 0 0] ------- [0:0 1:0 30 1] [7] 0 0
r 1.400000000 _0_ RTR  --- 8 cbr 1000 [0 0 0 0] ------- [0:0 1:0 32 0] [8] 0 0
s 1.400000000 _0_ RTR  --- 8 cbr 1020 [0 0 0 0] ------- [0:0 1:0 30 1] [8] 0 0
r 1.450000000 _0_ RTR  --- 9 cbr 1000 [0 0 0 0] ------- [0:0 1:0 32 0] [9] 0 0
s 1.450000000 _0_ RTR  --- 9 cbr 1020 [0 0 0 0] ------- [0:0 1:0 30 1] [9] 0 0
r 1.500000000 _0_ RTR  --- 10 cbr 1000 [0 0 0 0] ------- [0:0 1:0 32 0] [10] 0 0
s 1.500000000 _0_ RTR  --- 10 cbr 1020 [0 0 0 0] ------- [0:0 1:0 30 1] [10] 0 0
r 1.550000000 _0_ RTR  --- 11 cbr 1000 [0 0 0 0] ------- [0:0 1:0 32 0] [11] 0 0
s 1.550000000 _0_ RTR  --- 11 cbr 1020 [0 0 0 0] ------- [0:0 1:0 30 1] [11] 0 0
r 1.600000000 _0_ RTR  --- 12 cbr 1000 [0 0 0 0] ------- [0:0 1:0 32 0] [12] 0 0
s 1.600000000 _0_ RTR  --- 12 cbr 1020 [0 0 0 0] ------- [0:0 1:0 30 1] [12] 0 0
r 1.650000000 _0_ RTR  --- 13 cbr 1000 [0 0 0 0] ------- [0:0 1:0 32 0] [13] 0 0
s 1.650000000 _0_ RTR  --- 13 cbr 1020 [0 0 0 0] ------- [0:0 1:0 30 1] [13] 0 0
r 1.700000000 _0_ RTR  --- 14 cbr 1000 [0 0 0 0] ------- [0:0 1:0 32 0] [14] 0 0
s 1.700000000 _0_ RTR  --- 14 cbr 1020 [0 0 0 0] ------- [0:0 1:0 30 1] [14] 0 0
r 1.750000000 _0_ RTR  --- 15 cbr 1000 [0 0 0 0] ------- [0:0 1:0 32 0] [15] 0 0
s 1.750000000 _0_ RTR  --- 15 cbr 1020 [0 0 0 0] ------- [0:0 1:0 30 1] [15] 0 0
r 1.800000000 _0_ RTR  --- 16 cbr 1000 [0 0 0 0] ------- [0:0 1:0 32 0] [16] 0 0
s 1.800000000 _0_ RTR  --- 16 cbr 1020 [0 0 0 0] ------- [0:0 1:0 30 1] [16] 0 0
r 1.850000000 _0_ RTR  --- 17 cbr 1000 [0 0 0 0] ------- [0:0 1:0 32 0] [17] 0 0
s 1.850000000 _0_ RTR  --- 17 cbr 1020 [0 0 0 0] ------- [0:0 1:0 30 1] [17] 0 0
r 1.900000000 _0_ RTR  --- 18 cbr 1000 [0 0 0 0] ------- [0:0 1:0 32 0] [18] 0 0
s 1.900000000 _0_ RTR  --- 18 cbr 1020 [0 0 0 0] ------- [0:0 1:0 30 1] [18] 0 0
r 1.950000000 _0_ RTR  --- 19 cbr 1000 [0 0 0 0] ------- [0:0 1:0 32 0] [19] 0 0
s 1.950000000 _0_ RTR  --- 19 cbr 1020 [0 0 0 0] ------- [0:0 1:0 30 1] [19] 0 0
r 2.000000000 _0_ RTR  --- 20 cbr 1000 [0 0 0 0] ------- [0:0 1:0 32 0] [20] 0 0
s 2.000000000 _0_ RTR  --- 20 cbr 1020 [0 0 0 0] ------- [0:0 1:0 30 1] [20] 0 0
r 2.050000000 _0_ RTR  --- 21 cbr 1000 [0 0 0 0] ------- [0:0 1:0 32 0] [21] 0 0
s 2.050000000 _0_ RTR  --- 21 cbr 1020 [0 0 0 0] ------- [0:0 1:0 30 1] [21] 0 0
r 2.100000000 _0_ RTR  --- 22 cbr 1000 [0 0 0 0] ------- [0:0 1:0 32 0] [22] 0 0
s 2.100000000 _0_ RTR  --- 22 cbr 1020 [0 0 0 0] ------- [0:0 1:0 30 1] [22] 0 0
r 2.150000000 _0_ RTR  --- 23 cbr 1000 [0 0 0 0] ------- [0:0 1:0 32 0] [23] 0 0
s 2.150000000 _0_ RTR  --- 23 cbr 1020 [0 0 0 0] ------- [0:0 1:0 30 1] [23] 0 0
r 2.200000000 _0_ RTR  --- 24 cbr 1000 [0 0 0 0] ------- [0:0 1:0 32 0] [24] 0 0
s 2.200000000 _0_ RTR  --- 24 cbr 1020 [0 0 0 0] ------- [0:0 1:0 30 1] [24] 0 0
r 2.250000000 _0_ RTR  --- 25 cbr 1000 [0 0 0 0] ------- [0:0 1:0 32 0] [25] 0 0
s 2.250000000 _0_ RTR  --- 25 cbr 1020 [0 0 0 0] ------- [0:0 1:0 30 1] [25] 0 0
r 2.300000000 _0_ RTR  --- 26 cbr 1000 [0 0 0 0] ------- [0:0 1:0 32 0] [26] 0 0
s 2.300000000 _0_ RTR  --- 26 cbr 1020 [0 0 0 0] ------- [0:0 1:0 30 1] [26] 0 0
r 2.350000000 _0_ RTR  --- 27 cbr 1000 [0 0 0 0] ------- [0:0 1:0 32 0] [27] 0 0
s 2.350000000 _0_ RTR  --- 27 cbr 1020 [0 0 0 0] ------- [0:0 1:0 30 1] [27] 0 0
r 2.400000000 _0_ RTR  --- 28 cbr 1000 [0 0 0 0] ------- [0:0 1:0 32 0] [28] 0 0
s 2.400000000 _0_ RTR  --- 28 cbr 1020 [0 0 0 0] ------- [0:0 1:0 30 1] [28] 0 0
r 2.450000000 _0_ RTR  --- 29 cbr 1000 [0 0 0 0] ------- [0:0 1:0 32 0] [29] 0 0
s 2.450000000 _0_ RTR  --- 29 cbr 1020 [0 0 0 0] ------- [0:0 1:0 30 1] [29] 0 0
r 2.500000000 _0_ RTR  --- 30 cbr 1000 [0 0 0 0] ------- [0:0 1:0 32 0] [30] 0 0
s 2.500000000 _0_ RTR  --- 30 cbr 1020 [0 0 0 0] ------- [0:0 1:0 30 1] [30] 0 0
r 2.550000000 _0_ RTR  --- 31 cbr 1000 [0 0 0 0] ------- [0:0 1:0 32 0] [31] 0 0
s 2.550000000 _0_ RTR  --- 31 cbr 1020 [0 0 0 0] ------- [0:0 1:0 30 1] [31] 0 0
r 2.600000000 _0_ RTR  --- 32 cbr 1000 [0 0 0 0] ------- [0:0 1:0 32 0] [32] 0 0
s 2.600000000 _0_ RTR  --- 32 cbr 1020 [0 0 0 0] ------- [0:0 1:0 30 1] [32] 0 0
r 2.650000000 _0_ RTR  --- 33 cbr 1000 [0 0 0 0] ------- [0:0 1:0 32 0] [33] 0 0
s 2.650000000 _0_ RTR  --- 33 cbr 1020 [0 0 0 0] ------- [0:0 1:0 30 1] [33] 0 0
r 2.700000000 _0_ RTR  --- 34 cbr 1000 [0 0 0 0] ------- [0:0 1:0 32 0] [34] 0 0
s 2.700000000 _0_ RTR  --- 34 cbr 1020 [0 0 0 0] ------- [0:0 1:0 30 1] [34] 0 0
r 2.750000000 _0_ RTR  --- 35 cbr 1000 [0 0 0 0] ------- [0:0 1:0 32 0] [35] 0 0
s 2.750000000 _0_ RTR  --- 35 cbr 1020 [0 0 0 0] ------- [0:0 1:0 30 1] [35] 0 0
r 2.800000000 _0_ RTR  --- 36 cbr 1000 [0 0 0 0] ------- [0:0 1:0 32 0] [36] 0 0
s 2.800000000 _0_ RTR  --- 36 cbr 1020 [0 0 0 0] ------- [0:0 1:0 30 1] [36] 0 0
r 2.850000000 _0_ RTR  --- 37 cbr 1000 [0 0 0 0] ------- [0:0 1:0 32 0] [37] 0 0
s 2.850000000 _0_ RTR  --- 37 cbr 1020 [0 0 0 0] ------- [0:0 1:0 30 1] [37] 0 0
r 2.900000000 _0_ RTR  --- 38 cbr 1000 [0 0 0 0] ------- [0:0 1:0 32 0] [38] 0 0
s 2.900000000 _0_ RTR  --- 38 cbr 1020 [0 0 0 0] ------- [0:0 1:0 30 1] [38] 0 0
r 2.950000000 _0_ RTR  --- 39 cbr 1000 [0 0 0 0] ------- [0:0 1:0 32 0] [39] 0 0
s 2.950000000 _0_ RTR  --- 39 cbr 1020 [0 0 0 0] ------- [0:0 1:0 30 1] [39] 0 0
r 3.000000000 _0_ RTR  --- 40 cbr 1000 [0 0 0 0] ------- [0:0 1:0 32 0] [40] 0 0
s 3.000000000 _0_ RTR  --- 40 cbr 1020 [0 0 0 0] ------- [0:0 1:0 30 1] [40] 0 0
r 3.050000000 _0_ RTR  --- 41 cbr 1000 [0 0 0 0] ------- [0:0 1:0 32 0] [41] 0 0
s 3.050000000 _0_ RTR  --- 41 cbr 1020 [0 0 0 0] ------- [0:0 1:0 30 1] [41] 0 0
r 3.100000000 _0_ RTR  --- 42 cbr 1000 [0 0 0 0] ------- [0:0 1:0 32 0] [42] 0 0
s 3.100000000 _0_ RTR  --- 42 cbr 1020 [0 0 0 0] ------- [0:0 1:0 30 1] [42] 0 0
r 3.150000000 _0_ RTR  --- 43 cbr 1000 [0 0 0 0] ------- [0:0 1:0 32 0] [43] 0 0
s 3.150000000 _0_ RTR  --- 43 cbr 1020 [0 0 0 0] ------- [0:0 1:0 30 1] [43] 0 0
r 3.200000000 _0_ RTR  --- 44 cbr 1000 [0 0 0 0] ------- [0:0 1:0 32 0] [44] 0 0
s 3.200000000 _0_ RTR  --- 44 cbr 1020 [0 0 0 0] ------- [0:0 1:0 30 1] [44] 0 0
r 3.250000000 _0_ RTR  --- 45 cbr 1000 [0 0 0 0] ------- [0:0 1:0 32 0] [45] 0 0
s 3.250000000 _0_ RTR  --- 45 cbr 1020 [0 0 0 0] ------- [0:0 1:0 30 1] [45] 0 0
r 3.300000000 _0_ RTR  --- 46 cbr 1000 [0 0 0 0] ------- [0:0 1:0 32 0] [46] 0 0
s 3.300000000 _0_ RTR  --- 46 cbr 1020 [0 0 0 0] ------- [0:0 1:0 30 1] [46] 0 0
r 3.350000000 _0_ RTR  --- 47 cbr 1000 [0 0 0 0] ------- [0:0 1:0 32 0] [47] 0 0
s 3.350000000 _0_ RTR  --- 47 cbr 1020 [0 0 0 0] ------- [0:0 1:0 30 1] [47] 0 0
r 3.400000000 _0_ RTR  --- 48 cbr 1000 [0 0 0 0] ------- [0:0 1:0 32 0] [48] 0 0
s 3.400000000 _0_ RTR  --- 48 cbr 1020 [0 0 0 0] ------- [0:0 1:0 30 1] [48] 0 0
r 3.450000000 _0_ RTR  --- 49 cbr 1000 [0 0 0 0] ------- [0:0 1:0 32 0] [49] 0 0
s 3.450000000 _0_ RTR  --- 49 cbr 1020 [0 0 0 0] ------- [0:0 1:0 30 1] [49] 0 0
r 3.500000000 _0_ RTR  --- 50 cbr 1000 [0 0 0 0] ------- [0:0 1:0 32 0] [50] 0 0
s 3.500000000 _0_ RTR  --- 50 cbr 1020 [0 0 0 0] ------- [0:0 1:0 30 1] [50] 0 0
r 3.550000000 _0_ RTR  --- 51 cbr 1000 [0 0 0 0] ------- [0:0 1:0 32 0] [51] 0 0
s 3.550000000 _0_ RTR  --- 51 cbr 1020 [0 0 0 0] ------- [0:0 1:0 30 1] [51] 0 0
r 3.600000000 _0_ RTR  --- 52 cbr 1000 [0 0 0 0] ------- [0:0 1:0 32 0] [52] 0 0
s 3.600000000 _0_ RTR  --- 52 cbr 1020 [0 0 0 0] ------- [0:0 1:0 30 1] [52] 0 0
r 3.650000000 _0_ RTR  --- 53 cbr 1000 [0 0 0 0] ------- [0:0 1:0 32 0] [53] 0 0
s 3.650000000 _0_ RTR  --- 53 cbr 1020 [0 0 0 0] ------- [0:0 1:0 30 1] [53] 0 0
r 3.700000000 _0_ RTR  --- 54 cbr 1000 [0 0 0 0] ------- [0:0 1:0 32 0] [54] 0 0
s 3.700000000 _0_ RTR  --- 54 cbr 1020 [0 0 0 0] ------- [0:0 1:0 30 1] [54] 0 0
r 3.750000000 _0_ RTR  --- 55 cbr 1000 [0 0 0 0] ------- [0:0 1:0 32 0] [55] 0 0
s 3.750000000 _0_ RTR  --- 55 cbr 1020 [0 0 0 0] ------- [0:0 1:0 30 1] [55] 0 0
r 3.800000000 _0_ RTR  --- 56 cbr 1000 [0 0 0 0] ------- [0:0 1:0 32 0] [56] 0 0
s 3.800000000 _0_ RTR  --- 56 cbr 1020 [0 0 0 0] ------- [0:0 1:0 30 1] [56] 0 0
r 3.850000000 _0_ RTR  --- 57 cbr 1000 [0 0 0 0] ------- [0:0 1:0 32 0] [57] 0 0
s 3.850000000 _0_ RTR  --- 57 cbr 1020 [0 0 0 0] ------- [0:0 1:0 30 1] [57] 0 0
r 3.900000000 _0_ RTR  --- 58 cbr 1000 [0 0 0 0] ------- [0:0 1:0 32 0] [58] 0 0
s 3.900000000 _0_ RTR  --- 58 cbr 1020 [0 0 0 0] ------- [0:0 1:0 30 1] [58] 0 0
r 3.950000000 _0_ RTR  --- 59 cbr 1000 [0 0 0 0] ------- [0:0 1:0 32 0] [59] 0 0
s 3.950000000 _0_ RTR  --- 59 cbr 1020 [0 0 0 0] ------- [0:0 1:0 30 1] [59] 0 0
r 4.000000000 _0_ RTR  --- 60 cbr 1000 [0 0 0 0] ------- [0:0 1:0 32 0] [60] 0 0
s 4.000000000 _0_ RTR  --- 60 cbr 1020 [0 0 0 0] ------- [0:0 1:0 30 1] [60] 0 0
