V -t * -v 1.0a5 -a 0
A -t * -n 1 -p 0 -o 0x7fffffff -c 30 -a 1
A -t * -h 1 -m 1073741823 -s 0
n -t * -a 4 -s 4 -S UP -v circle -c black -i black
n -t * -a 0 -s 0 -S UP -v circle -c black -i black
n -t * -a 5 -s 5 -S UP -v circle -c black -i black
n -t * -a 1 -s 1 -S UP -v circle -c black -i black
n -t * -a 2 -s 2 -S UP -v circle -c black -i black
n -t * -a 3 -s 3 -S UP -v circle -c black -i black
l -t * -s 1 -d 0 -S UP -r 1000000 -D 0.01 -c black -o left-down
l -t * -s 1 -d 2 -S UP -r 1000000 -D 0.01 -c black -o right-down
l -t * -s 0 -d 5 -S UP -r 1000000 -D 0.01 -c black -o down
l -t * -s 2 -d 3 -S UP -r 1000000 -D 0.01 -c black -o down
l -t * -s 4 -d 5 -S UP -r 1000000 -D 0.01 -c black -o left-up
l -t * -s 4 -d 3 -S UP -r 1000000 -D 0.01 -c black -o right-up
+ -t 0.000169788487334637 -s 0 -d 1 -p rtProtoDV -e 6 -c 0 -i 0 -a 0 -x {0.1 1.2 -1 ------- null}
- -t 0.000169788487334637 -s 0 -d 1 -p rtProtoDV -e 6 -c 0 -i 0 -a 0 -x {0.1 1.2 -1 ------- null}
h -t 0.000169788487334637 -s 0 -d 1 -p rtProtoDV -e 6 -c 0 -i 0 -a 0 -x {0.1 1.2 -1 ------- null}
+ -t 0.000169788487334637 -s 0 -d 5 -p rtProtoDV -e 6 -c 0 -i 1 -a 0 -x {0.1 5.1 -1 ------- null}
- -t 0.000169788487334637 -s 0 -d 5 -p rtProtoDV -e 6 -c 0 -i 1 -a 0 -x {0.1 5.1 -1 ------- null}
h -t 0.000169788487334637 -s 0 -d 5 -p rtProtoDV -e 6 -c 0 -i 1 -a 0 -x {0.1 5.1 -1 ------- null}
+ -t 0.00710233021858257 -s 2 -d 1 -p rtProtoDV -e 6 -c 0 -i 2 -a 0 -x {2.1 1.2 -1 ------- null}
- -t 0.00710233021858257 -s 2 -d 1 -p rtProtoDV -e 6 -c 0 -i 2 -a 0 -x {2.1 1.2 -1 ------- null}
h -t 0.00710233021858257 -s 2 -d 1 -p rtProtoDV -e 6 -c 0 -i 2 -a 0 -x {2.1 1.2 -1 ------- null}
+ -t 0.00710233021858257 -s 2 -d 3 -p rtProtoDV -e 6 -c 0 -i 3 -a 0 -x {2.1 3.2 -1 ------- null}
- -t 0.00710233021858257 -s 2 -d 3 -p rtProtoDV -e 6 -c 0 -i 3 -a 0 -x {2.1 3.2 -1 ------- null}
h -t 0.00710233021858257 -s 2 -d 3 -p rtProtoDV -e 6 -c 0 -i 3 -a 0 -x {2.1 3.2 -1 ------- null}
r -t 0.0102177884873346 -s 0 -d 1 -p rtProtoDV -e 6 -c 0 -i 0 -a 0 -x {0.1 1.2 -1 ------- null}
+ -t 0.0102177884873346 -s 1 -d 0 -p rtProtoDV -e 6 -c 0 -i 4 -a 0 -x {1.2 0.1 -1 ------- null}
- -t 0.0102177884873346 -s 1 -d 0 -p rtProtoDV -e 6 -c 0 -i 4 -a 0 -x {1.2 0.1 -1 ------- null}
h -t 0.0102177884873346 -s 1 -d 0 -p rtProtoDV -e 6 -c 0 -i 4 -a 0 -x {1.2 0.1 -1 ------- null}
+ -t 0.0102177884873346 -s 1 -d 2 -p rtProtoDV -e 6 -c 0 -i 5 -a 0 -x {1.2 2.1 -1 ------- null}
- -t 0.0102177884873346 -s 1 -d 2 -p rtProtoDV -e 6 -c 0 -i 5 -a 0 -x {1.2 2.1 -1 ------- null}
h -t 0.0102177884873346 -s 1 -d 2 -p rtProtoDV -e 6 -c 0 -i 5 -a 0 -x {1.2 2.1 -1 ------- null}
r -t 0.0102177884873346 -s 0 -d 5 -p rtProtoDV -e 6 -c 0 -i 1 -a 0 -x {0.1 5.1 -1 ------- null}
+ -t 0.0102177884873346 -s 5 -d 0 -p rtProtoDV -e 6 -c 0 -i 6 -a 0 -x {5.1 0.1 -1 ------- null}
- -t 0.0102177884873346 -s 5 -d 0 -p rtProtoDV -e 6 -c 0 -i 6 -a 0 -x {5.1 0.1 -1 ------- null}
h -t 0.0102177884873346 -s 5 -d 0 -p rtProtoDV -e 6 -c 0 -i 6 -a 0 -x {5.1 0.1 -1 ------- null}
+ -t 0.0102177884873346 -s 5 -d 4 -p rtProtoDV -e 6 -c 0 -i 7 -a 0 -x {5.1 4.1 -1 ------- null}
- -t 0.0102177884873346 -s 5 -d 4 -p rtProtoDV -e 6 -c 0 -i 7 -a 0 -x {5.1 4.1 -1 ------- null}
h -t 0.0102177884873346 -s 5 -d 4 -p rtProtoDV -e 6 -c 0 -i 7 -a 0 -x {5.1 4.1 -1 ------- null}
r -t 0.0171503302185826 -s 2 -d 1 -p rtProtoDV -e 6 -c 0 -i 2 -a 0 -x {2.1 1.2 -1 ------- null}
+ -t 0.0171503302185826 -s 1 -d 0 -p rtProtoDV -e 6 -c 0 -i 8 -a 0 -x {1.2 0.1 -1 ------- null}
- -t 0.0171503302185826 -s 1 -d 0 -p rtProtoDV -e 6 -c 0 -i 8 -a 0 -x {1.2 0.1 -1 ------- null}
h -t 0.0171503302185826 -s 1 -d 0 -p rtProtoDV -e 6 -c 0 -i 8 -a 0 -x {1.2 0.1 -1 ------- null}
+ -t 0.0171503302185826 -s 1 -d 2 -p rtProtoDV -e 6 -c 0 -i 9 -a 0 -x {1.2 2.1 -1 ------- null}
- -t 0.0171503302185826 -s 1 -d 2 -p rtProtoDV -e 6 -c 0 -i 9 -a 0 -x {1.2 2.1 -1 ------- null}
h -t 0.0171503302185826 -s 1 -d 2 -p rtProtoDV -e 6 -c 0 -i 9 -a 0 -x {1.2 2.1 -1 ------- null}
r -t 0.0171503302185826 -s 2 -d 3 -p rtProtoDV -e 6 -c 0 -i 3 -a 0 -x {2.1 3.2 -1 ------- null}
+ -t 0.0171503302185826 -s 3 -d 2 -p rtProtoDV -e 6 -c 0 -i 10 -a 0 -x {3.2 2.1 -1 ------- null}
- -t 0.0171503302185826 -s 3 -d 2 -p rtProtoDV -e 6 -c 0 -i 10 -a 0 -x {3.2 2.1 -1 ------- null}
h -t 0.0171503302185826 -s 3 -d 2 -p rtProtoDV -e 6 -c 0 -i 10 -a 0 -x {3.2 2.1 -1 ------- null}
+ -t 0.0171503302185826 -s 3 -d 4 -p rtProtoDV -e 6 -c 0 -i 11 -a 0 -x {3.2 4.1 -1 ------- null}
- -t 0.0171503302185826 -s 3 -d 4 -p rtProtoDV -e 6 -c 0 -i 11 -a 0 -x {3.2 4.1 -1 ------- null}
h -t 0.0171503302185826 -s 3 -d 4 -p rtProtoDV -e 6 -c 0 -i 11 -a 0 -x {3.2 4.1 -1 ------- null}
r -t 0.0202657884873346 -s 1 -d 0 -p rtProtoDV -e 6 -c 0 -i 4 -a 0 -x {1.2 0.1 -1 ------- null}
+ -t 0.0202657884873346 -s 0 -d 1 -p rtProtoDV -e 6 -c 0 -i 12 -a 0 -x {0.1 1.2 -1 ------- null}
- -t 0.0202657884873346 -s 0 -d 1 -p rtProtoDV -e 6 -c 0 -i 12 -a 0 -x {0.1 1.2 -1 ------- null}
h -t 0.0202657884873346 -s 0 -d 1 -p rtProtoDV -e 6 -c 0 -i 12 -a 0 -x {0.1 1.2 -1 ------- null}
+ -t 0.0202657884873346 -s 0 -d 5 -p rtProtoDV -e 6 -c 0 -i 13 -a 0 -x {0.1 5.1 -1 ------- null}
- -t 0.0202657884873346 -s 0 -d 5 -p rtProtoDV -e 6 -c 0 -i 13 -a 0 -x {0.1 5.1 -1 ------- null}
h -t 0.0202657884873346 -s 0 -d 5 -p rtProtoDV -e 6 -c 0 -i 13 -a 0 -x {0.1 5.1 -1 ------- null}
r -t 0.0202657884873346 -s 1 -d 2 -p rtProtoDV -e 6 -c 0 -i 5 -a 0 -x {1.2 2.1 -1 ------- null}
+ -t 0.0202657884873346 -s 2 -d 1 -p rtProtoDV -e 6 -c 0 -i 14 -a 0 -x {2.1 1.2 -1 ------- null}
- -t 0.0202657884873346 -s 2 -d 1 -p rtProtoDV -e 6 -c 0 -i 14 -a 0 -x {2.1 1.2 -1 ------- null}
h -t 0.0202657884873346 -s 2 -d 1 -p rtProtoDV -e 6 -c 0 -i 14 -a 0 -x {2.1 1.2 -1 ------- null}
+ -t 0.0202657884873346 -s 2 -d 3 -p rtProtoDV -e 6 -c 0 -i 15 -a 0 -x {2.1 3.2 -1 ------- null}
- -t 0.0202657884873346 -s 2 -d 3 -p rtProtoDV -e 6 -c 0 -i 15 -a 0 -x {2.1 3.2 -1 ------- null}
h -t 0.0202657884873346 -s 2 -d 3 -p rtProtoDV -e 6 -c 0 -i 15 -a 0 -x {2.1 3.2 -1 ------- null}
r -t 0.0202657884873346 -s 5 -d 0 -p rtProtoDV -e 6 -c 0 -i 6 -a 0 -x {5.1 0.1 -1 ------- null}
+ -t 0.0202657884873346 -s 0 -d 1 -p rtProtoDV -e 6 -c 0 -i 16 -a 0 -x {0.1 1.2 -1 ------- null}
+ -t 0.0202657884873346 -s 0 -d 5 -p rtProtoDV -e 6 -c 0 -i 17 -a 0 -x {0.1 5.1 -1 ------- null}
r -t 0.0202657884873346 -s 5 -d 4 -p rtProtoDV -e 6 -c 0 -i 7 -a 0 -x {5.1 4.1 -1 ------- null}
+ -t 0.0202657884873346 -s 4 -d 3 -p rtProtoDV -e 6 -c 0 -i 18 -a 0 -x {4.1 3.2 -1 ------- null}
- -t 0.0202657884873346 -s 4 -d 3 -p rtProtoDV -e 6 -c 0 -i 18 -a 0 -x {4.1 3.2 -1 ------- null}
h -t 0.0202657884873346 -s 4 -d 3 -p rtProtoDV -e 6 -c 0 -i 18 -a 0 -x {4.1 3.2 -1 ------- null}
+ -t 0.0202657884873346 -s 4 -d 5 -p rtProtoDV -e 6 -c 0 -i 19 -a 0 -x {4.1 5.1 -1 ------- null}
- -t 0.0202657884873346 -s 4 -d 5 -p rtProtoDV -e 6 -c 0 -i 19 -a 0 -x {4.1 5.1 -1 ------- null}
h -t 0.0202657884873346 -s 4 -d 5 -p rtProtoDV -e 6 -c 0 -i 19 -a 0 -x {4.1 5.1 -1 ------- null}
- -t 0.0203137884873346 -s 0 -d 1 -p rtProtoDV -e 6 -c 0 -i 16 -a 0 -x {0.1 1.2 -1 ------- null}
h -t 0.0203137884873346 -s 0 -d 1 -p rtProtoDV -e 6 -c 0 -i 16 -a 0 -x {0.1 1.2 -1 ------- null}
- -t 0.0203137884873346 -s 0 -d 5 -p rtProtoDV -e 6 -c 0 -i 17 -a 0 -x {0.1 5.1 -1 ------- null}
h -t 0.0203137884873346 -s 0 -d 5 -p rtProtoDV -e 6 -c 0 -i 17 -a 0 -x {0.1 5.1 -1 ------- null}
r -t 0.0271983302185826 -s 1 -d 0 -p rtProtoDV -e 6 -c 0 -i 8 -a 0 -x {1.2 0.1 -1 ------- null}
+ -t 0.0271983302185826 -s 0 -d 1 -p rtProtoDV -e 6 -c 0 -i 20 -a 0 -x {0.1 1.2 -1 ------- null}
- -t 0.0271983302185826 -s 0 -d 1 -p rtProtoDV -e 6 -c 0 -i 20 -a 0 -x {0.1 1.2 -1 ------- null}
h -t 0.0271983302185826 -s 0 -d 1 -p rtProtoDV -e 6 -c 0 -i 20 -a 0 -x {0.1 1.2 -1 ------- null}
+ -t 0.0271983302185826 -s 0 -d 5 -p rtProtoDV -e 6 -c 0 -i 21 -a 0 -x {0.1 5.1 -1 ------- null}
- -t 0.0271983302185826 -s 0 -d 5 -p rtProtoDV -e 6 -c 0 -i 21 -a 0 -x {0.1 5.1 -1 ------- null}
h -t 0.0271983302185826 -s 0 -d 5 -p rtProtoDV -e 6 -c 0 -i 21 -a 0 -x {0.1 5.1 -1 ------- null}
r -t 0.0271983302185826 -s 1 -d 2 -p rtProtoDV -e 6 -c 0 -i 9 -a 0 -x {1.2 2.1 -1 ------- null}
r -t 0.0271983302185826 -s 3 -d 2 -p rtProtoDV -e 6 -c 0 -i 10 -a 0 -x {3.2 2.1 -1 ------- null}
+ -t 0.0271983302185826 -s 2 -d 1 -p rtProtoDV -e 6 -c 0 -i 22 -a 0 -x {2.1 1.2 -1 ------- null}
- -t 0.0271983302185826 -s 2 -d 1 -p rtProtoDV -e 6 -c 0 -i 22 -a 0 -x {2.1 1.2 -1 ------- null}
h -t 0.0271983302185826 -s 2 -d 1 -p rtProtoDV -e 6 -c 0 -i 22 -a 0 -x {2.1 1.2 -1 ------- null}
+ -t 0.0271983302185826 -s 2 -d 3 -p rtProtoDV -e 6 -c 0 -i 23 -a 0 -x {2.1 3.2 -1 ------- null}
- -t 0.0271983302185826 -s 2 -d 3 -p rtProtoDV -e 6 -c 0 -i 23 -a 0 -x {2.1 3.2 -1 ------- null}
h -t 0.0271983302185826 -s 2 -d 3 -p rtProtoDV -e 6 -c 0 -i 23 -a 0 -x {2.1 3.2 -1 ------- null}
r -t 0.0271983302185826 -s 3 -d 4 -p rtProtoDV -e 6 -c 0 -i 11 -a 0 -x {3.2 4.1 -1 ------- null}
+ -t 0.0271983302185826 -s 4 -d 3 -p rtProtoDV -e 6 -c 0 -i 24 -a 0 -x {4.1 3.2 -1 ------- null}
- -t 0.0271983302185826 -s 4 -d 3 -p rtProtoDV -e 6 -c 0 -i 24 -a 0 -x {4.1 3.2 -1 ------- null}
h -t 0.0271983302185826 -s 4 -d 3 -p rtProtoDV -e 6 -c 0 -i 24 -a 0 -x {4.1 3.2 -1 ------- null}
+ -t 0.0271983302185826 -s 4 -d 5 -p rtProtoDV -e 6 -c 0 -i 25 -a 0 -x {4.1 5.1 -1 ------- null}
- -t 0.0271983302185826 -s 4 -d 5 -p rtProtoDV -e 6 -c 0 -i 25 -a 0 -x {4.1 5.1 -1 ------- null}
h -t 0.0271983302185826 -s 4 -d 5 -p rtProtoDV -e 6 -c 0 -i 25 -a 0 -x {4.1 5.1 -1 ------- null}
r -t 0.0303137884873346 -s 0 -d 1 -p rtProtoDV -e 6 -c 0 -i 12 -a 0 -x {0.1 1.2 -1 ------- null}
r -t 0.0303137884873346 -s 0 -d 5 -p rtProtoDV -e 6 -c 0 -i 13 -a 0 -x {0.1 5.1 -1 ------- null}
+ -t 0.0303137884873346 -s 5 -d 0 -p rtProtoDV -e 6 -c 0 -i 26 -a 0 -x {5.1 0.1 -1 ------- null}
- -t 0.0303137884873346 -s 5 -d 0 -p rtProtoDV -e 6 -c 0 -i 26 -a 0 -x {5.1 0.1 -1 ------- null}
h -t 0.0303137884873346 -s 5 -d 0 -p rtProtoDV -e 6 -c 0 -i 26 -a 0 -x {5.1 0.1 -1 ------- null}
+ -t 0.0303137884873346 -s 5 -d 4 -p rtProtoDV -e 6 -c 0 -i 27 -a 0 -x {5.1 4.1 -1 ------- null}
- -t 0.0303137884873346 -s 5 -d 4 -p rtProtoDV -e 6 -c 0 -i 27 -a 0 -x {5.1 4.1 -1 ------- null}
h -t 0.0303137884873346 -s 5 -d 4 -p rtProtoDV -e 6 -c 0 -i 27 -a 0 -x {5.1 4.1 -1 ------- null}
r -t 0.0303137884873346 -s 2 -d 1 -p rtProtoDV -e 6 -c 0 -i 14 -a 0 -x {2.1 1.2 -1 ------- null}
r -t 0.0303137884873346 -s 2 -d 3 -p rtProtoDV -e 6 -c 0 -i 15 -a 0 -x {2.1 3.2 -1 ------- null}
+ -t 0.0303137884873346 -s 3 -d 2 -p rtProtoDV -e 6 -c 0 -i 28 -a 0 -x {3.2 2.1 -1 ------- null}
- -t 0.0303137884873346 -s 3 -d 2 -p rtProtoDV -e 6 -c 0 -i 28 -a 0 -x {3.2 2.1 -1 ------- null}
h -t 0.0303137884873346 -s 3 -d 2 -p rtProtoDV -e 6 -c 0 -i 28 -a 0 -x {3.2 2.1 -1 ------- null}
+ -t 0.0303137884873346 -s 3 -d 4 -p rtProtoDV -e 6 -c 0 -i 29 -a 0 -x {3.2 4.1 -1 ------- null}
- -t 0.0303137884873346 -s 3 -d 4 -p rtProtoDV -e 6 -c 0 -i 29 -a 0 -x {3.2 4.1 -1 ------- null}
h -t 0.0303137884873346 -s 3 -d 4 -p rtProtoDV -e 6 -c 0 -i 29 -a 0 -x {3.2 4.1 -1 ------- null}
r -t 0.0303137884873346 -s 4 -d 3 -p rtProtoDV -e 6 -c 0 -i 18 -a 0 -x {4.1 3.2 -1 ------- null}
+ -t 0.0303137884873346 -s 3 -d 2 -p rtProtoDV -e 6 -c 0 -i 30 -a 0 -x {3.2 2.1 -1 ------- null}
+ -t 0.0303137884873346 -s 3 -d 4 -p rtProtoDV -e 6 -c 0 -i 31 -a 0 -x {3.2 4.1 -1 ------- null}
r -t 0.0303137884873346 -s 4 -d 5 -p rtProtoDV -e 6 -c 0 -i 19 -a 0 -x {4.1 5.1 -1 ------- null}
+ -t 0.0303137884873346 -s 5 -d 0 -p rtProtoDV -e 6 -c 0 -i 32 -a 0 -x {5.1 0.1 -1 ------- null}
+ -t 0.0303137884873346 -s 5 -d 4 -p rtProtoDV -e 6 -c 0 -i 33 -a 0 -x {5.1 4.1 -1 ------- null}
r -t 0.0303617884873346 -s 0 -d 1 -p rtProtoDV -e 6 -c 0 -i 16 -a 0 -x {0.1 1.2 -1 ------- null}
+ -t 0.0303617884873346 -s 1 -d 0 -p rtProtoDV -e 6 -c 0 -i 34 -a 0 -x {1.2 0.1 -1 ------- null}
- -t 0.0303617884873346 -s 1 -d 0 -p rtProtoDV -e 6 -c 0 -i 34 -a 0 -x {1.2 0.1 -1 ------- null}
h -t 0.0303617884873346 -s 1 -d 0 -p rtProtoDV -e 6 -c 0 -i 34 -a 0 -x {1.2 0.1 -1 ------- null}
+ -t 0.0303617884873346 -s 1 -d 2 -p rtProtoDV -e 6 -c 0 -i 35 -a 0 -x {1.2 2.1 -1 ------- null}
- -t 0.0303617884873346 -s 1 -d 2 -p rtProtoDV -e 6 -c 0 -i 35 -a 0 -x {1.2 2.1 -1 ------- null}
h -t 0.0303617884873346 -s 1 -d 2 -p rtProtoDV -e 6 -c 0 -i 35 -a 0 -x {1.2 2.1 -1 ------- null}
r -t 0.0303617884873346 -s 0 -d 5 -p rtProtoDV -e 6 -c 0 -i 17 -a 0 -x {0.1 5.1 -1 ------- null}
- -t 0.0303617884873346 -s 5 -d 0 -p rtProtoDV -e 6 -c 0 -i 32 -a 0 -x {5.1 0.1 -1 ------- null}
h -t 0.0303617884873346 -s 5 -d 0 -p rtProtoDV -e 6 -c 0 -i 32 -a 0 -x {5.1 0.1 -1 ------- null}
- -t 0.0303617884873346 -s 5 -d 4 -p rtProtoDV -e 6 -c 0 -i 33 -a 0 -x {5.1 4.1 -1 ------- null}
h -t 0.0303617884873346 -s 5 -d 4 -p rtProtoDV -e 6 -c 0 -i 33 -a 0 -x {5.1 4.1 -1 ------- null}
- -t 0.0303617884873346 -s 3 -d 2 -p rtProtoDV -e 6 -c 0 -i 30 -a 0 -x {3.2 2.1 -1 ------- null}
h -t 0.0303617884873346 -s 3 -d 2 -p rtProtoDV -e 6 -c 0 -i 30 -a 0 -x {3.2 2.1 -1 ------- null}
- -t 0.0303617884873346 -s 3 -d 4 -p rtProtoDV -e 6 -c 0 -i 31 -a 0 -x {3.2 4.1 -1 ------- null}
h -t 0.0303617884873346 -s 3 -d 4 -p rtProtoDV -e 6 -c 0 -i 31 -a 0 -x {3.2 4.1 -1 ------- null}
r -t 0.0372463302185826 -s 0 -d 1 -p rtProtoDV -e 6 -c 0 -i 20 -a 0 -x {0.1 1.2 -1 ------- null}
r -t 0.0372463302185826 -s 0 -d 5 -p rtProtoDV -e 6 -c 0 -i 21 -a 0 -x {0.1 5.1 -1 ------- null}
r -t 0.0372463302185826 -s 2 -d 1 -p rtProtoDV -e 6 -c 0 -i 22 -a 0 -x {2.1 1.2 -1 ------- null}
r -t 0.0372463302185826 -s 2 -d 3 -p rtProtoDV -e 6 -c 0 -i 23 -a 0 -x {2.1 3.2 -1 ------- null}
r -t 0.0372463302185826 -s 4 -d 3 -p rtProtoDV -e 6 -c 0 -i 24 -a 0 -x {4.1 3.2 -1 ------- null}
r -t 0.0372463302185826 -s 4 -d 5 -p rtProtoDV -e 6 -c 0 -i 25 -a 0 -x {4.1 5.1 -1 ------- null}
r -t 0.0403617884873346 -s 5 -d 0 -p rtProtoDV -e 6 -c 0 -i 26 -a 0 -x {5.1 0.1 -1 ------- null}
r -t 0.0403617884873346 -s 5 -d 4 -p rtProtoDV -e 6 -c 0 -i 27 -a 0 -x {5.1 4.1 -1 ------- null}
r -t 0.0403617884873346 -s 3 -d 2 -p rtProtoDV -e 6 -c 0 -i 28 -a 0 -x {3.2 2.1 -1 ------- null}
r -t 0.0403617884873346 -s 3 -d 4 -p rtProtoDV -e 6 -c 0 -i 29 -a 0 -x {3.2 4.1 -1 ------- null}
r -t 0.0404097884873346 -s 1 -d 0 -p rtProtoDV -e 6 -c 0 -i 34 -a 0 -x {1.2 0.1 -1 ------- null}
r -t 0.0404097884873346 -s 1 -d 2 -p rtProtoDV -e 6 -c 0 -i 35 -a 0 -x {1.2 2.1 -1 ------- null}
r -t 0.0404097884873346 -s 5 -d 0 -p rtProtoDV -e 6 -c 0 -i 32 -a 0 -x {5.1 0.1 -1 ------- null}
r -t 0.0404097884873346 -s 5 -d 4 -p rtProtoDV -e 6 -c 0 -i 33 -a 0 -x {5.1 4.1 -1 ------- null}
r -t 0.0404097884873346 -s 3 -d 2 -p rtProtoDV -e 6 -c 0 -i 30 -a 0 -x {3.2 2.1 -1 ------- null}
r -t 0.0404097884873346 -s 3 -d 4 -p rtProtoDV -e 6 -c 0 -i 31 -a 0 -x {3.2 4.1 -1 ------- null}
+ -t 0.04406133552271 -s 3 -d 2 -p rtProtoDV -e 6 -c 0 -i 36 -a 0 -x {3.2 2.1 -1 ------- null}
- -t 0.04406133552271 -s 3 -d 2 -p rtProtoDV -e 6 -c 0 -i 36 -a 0 -x {3.2 2.1 -1 ------- null}
h -t 0.04406133552271 -s 3 -d 2 -p rtProtoDV -e 6 -c 0 -i 36 -a 0 -x {3.2 2.1 -1 ------- null}
+ -t 0.04406133552271 -s 3 -d 4 -p rtProtoDV -e 6 -c 0 -i 37 -a 0 -x {3.2 4.1 -1 ------- null}
- -t 0.04406133552271 -s 3 -d 4 -p rtProtoDV -e 6 -c 0 -i 37 -a 0 -x {3.2 4.1 -1 ------- null}
h -t 0.04406133552271 -s 3 -d 4 -p rtProtoDV -e 6 -c 0 -i 37 -a 0 -x {3.2 4.1 -1 ------- null}
r -t 0.05410933552271 -s 3 -d 2 -p rtProtoDV -e 6 -c 0 -i 36 -a 0 -x {3.2 2.1 -1 ------- null}
r -t 0.05410933552271 -s 3 -d 4 -p rtProtoDV -e 6 -c 0 -i 37 -a 0 -x {3.2 4.1 -1 ------- null}
+ -t 0.2 -s 1 -d 2 -p tcp -e 40 -c 1 -i 38 -a 1 -x {1.0 3.0 0 ------- null}
- -t 0.2 -s 1 -d 2 -p tcp -e 40 -c 1 -i 38 -a 1 -x {1.0 3.0 0 ------- null}
h -t 0.2 -s 1 -d 2 -p tcp -e 40 -c 1 -i 38 -a 1 -x {1.0 3.0 -1 ------- null}
r -t 0.21032 -s 1 -d 2 -p tcp -e 40 -c 1 -i 38 -a 1 -x {1.0 3.0 0 ------- null}
+ -t 0.21032 -s 2 -d 3 -p tcp -e 40 -c 1 -i 38 -a 1 -x {1.0 3.0 0 ------- null}
- -t 0.21032 -s 2 -d 3 -p tcp -e 40 -c 1 -i 38 -a 1 -x {1.0 3.0 0 ------- null}
h -t 0.21032 -s 2 -d 3 -p tcp -e 40 -c 1 -i 38 -a 1 -x {1.0 3.0 -1 ------- null}
+ -t 0.22058669092161 -s 4 -d 3 -p rtProtoDV -e 6 -c 0 -i 39 -a 0 -x {4.1 3.2 -1 ------- null}
- -t 0.22058669092161 -s 4 -d 3 -p rtProtoDV -e 6 -c 0 -i 39 -a 0 -x {4.1 3.2 -1 ------- null}
h -t 0.22058669092161 -s 4 -d 3 -p rtProtoDV -e 6 -c 0 -i 39 -a 0 -x {4.1 3.2 -1 ------- null}
+ -t 0.22058669092161 -s 4 -d 5 -p rtProtoDV -e 6 -c 0 -i 40 -a 0 -x {4.1 5.1 -1 ------- null}
- -t 0.22058669092161 -s 4 -d 5 -p rtProtoDV -e 6 -c 0 -i 40 -a 0 -x {4.1 5.1 -1 ------- null}
h -t 0.22058669092161 -s 4 -d 5 -p rtProtoDV -e 6 -c 0 -i 40 -a 0 -x {4.1 5.1 -1 ------- null}
r -t 0.22064 -s 2 -d 3 -p tcp -e 40 -c 1 -i 38 -a 1 -x {1.0 3.0 0 ------- null}
+ -t 0.22064 -s 3 -d 2 -p ack -e 40 -c 1 -i 41 -a 1 -x {3.0 1.0 0 ------- null}
- -t 0.22064 -s 3 -d 2 -p ack -e 40 -c 1 -i 41 -a 1 -x {3.0 1.0 0 ------- null}
h -t 0.22064 -s 3 -d 2 -p ack -e 40 -c 1 -i 41 -a 1 -x {3.0 1.0 -1 ------- null}
r -t 0.23063469092161 -s 4 -d 3 -p rtProtoDV -e 6 -c 0 -i 39 -a 0 -x {4.1 3.2 -1 ------- null}
r -t 0.23063469092161 -s 4 -d 5 -p rtProtoDV -e 6 -c 0 -i 40 -a 0 -x {4.1 5.1 -1 ------- null}
r -t 0.23096 -s 3 -d 2 -p ack -e 40 -c 1 -i 41 -a 1 -x {3.0 1.0 0 ------- null}
+ -t 0.23096 -s 2 -d 1 -p ack -e 40 -c 1 -i 41 -a 1 -x {3.0 1.0 0 ------- null}
- -t 0.23096 -s 2 -d 1 -p ack -e 40 -c 1 -i 41 -a 1 -x {3.0 1.0 0 ------- null}
h -t 0.23096 -s 2 -d 1 -p ack -e 40 -c 1 -i 41 -a 1 -x {3.0 1.0 -1 ------- null}
r -t 0.24128 -s 2 -d 1 -p ack -e 40 -c 1 -i 41 -a 1 -x {3.0 1.0 0 ------- null}
+ -t 0.24128 -s 1 -d 2 -p tcp -e 1040 -c 1 -i 42 -a 1 -x {1.0 3.0 1 ------- null}
- -t 0.24128 -s 1 -d 2 -p tcp -e 1040 -c 1 -i 42 -a 1 -x {1.0 3.0 1 ------- null}
h -t 0.24128 -s 1 -d 2 -p tcp -e 1040 -c 1 -i 42 -a 1 -x {1.0 3.0 -1 ------- null}
+ -t 0.24128 -s 1 -d 2 -p tcp -e 1040 -c 1 -i 43 -a 1 -x {1.0 3.0 2 ------- null}
- -t 0.2496 -s 1 -d 2 -p tcp -e 1040 -c 1 -i 43 -a 1 -x {1.0 3.0 2 ------- null}
h -t 0.2496 -s 1 -d 2 -p tcp -e 1040 -c 1 -i 43 -a 1 -x {1.0 3.0 -1 ------- null}
r -t 0.2596 -s 1 -d 2 -p tcp -e 1040 -c 1 -i 42 -a 1 -x {1.0 3.0 1 ------- null}
+ -t 0.2596 -s 2 -d 3 -p tcp -e 1040 -c 1 -i 42 -a 1 -x {1.0 3.0 1 ------- null}
- -t 0.2596 -s 2 -d 3 -p tcp -e 1040 -c 1 -i 42 -a 1 -x {1.0 3.0 1 ------- null}
h -t 0.2596 -s 2 -d 3 -p tcp -e 1040 -c 1 -i 42 -a 1 -x {1.0 3.0 -1 ------- null}
r -t 0.26792 -s 1 -d 2 -p tcp -e 1040 -c 1 -i 43 -a 1 -x {1.0 3.0 2 ------- null}
+ -t 0.26792 -s 2 -d 3 -p tcp -e 1040 -c 1 -i 43 -a 1 -x {1.0 3.0 2 ------- null}
- -t 0.26792 -s 2 -d 3 -p tcp -e 1040 -c 1 -i 43 -a 1 -x {1.0 3.0 2 ------- null}
h -t 0.26792 -s 2 -d 3 -p tcp -e 1040 -c 1 -i 43 -a 1 -x {1.0 3.0 -1 ------- null}
r -t 0.27792 -s 2 -d 3 -p tcp -e 1040 -c 1 -i 42 -a 1 -x {1.0 3.0 1 ------- null}
+ -t 0.27792 -s 3 -d 2 -p ack -e 40 -c 1 -i 44 -a 1 -x {3.0 1.0 1 ------- null}
- -t 0.27792 -s 3 -d 2 -p ack -e 40 -c 1 -i 44 -a 1 -x {3.0 1.0 1 ------- null}
h -t 0.27792 -s 3 -d 2 -p ack -e 40 -c 1 -i 44 -a 1 -x {3.0 1.0 -1 ------- null}
+ -t 0.277940357931862 -s 1 -d 0 -p rtProtoDV -e 6 -c 0 -i 45 -a 0 -x {1.2 0.1 -1 ------- null}
- -t 0.277940357931862 -s 1 -d 0 -p rtProtoDV -e 6 -c 0 -i 45 -a 0 -x {1.2 0.1 -1 ------- null}
h -t 0.277940357931862 -s 1 -d 0 -p rtProtoDV -e 6 -c 0 -i 45 -a 0 -x {1.2 0.1 -1 ------- null}
+ -t 0.277940357931862 -s 1 -d 2 -p rtProtoDV -e 6 -c 0 -i 46 -a 0 -x {1.2 2.1 -1 ------- null}
- -t 0.277940357931862 -s 1 -d 2 -p rtProtoDV -e 6 -c 0 -i 46 -a 0 -x {1.2 2.1 -1 ------- null}
h -t 0.277940357931862 -s 1 -d 2 -p rtProtoDV -e 6 -c 0 -i 46 -a 0 -x {1.2 2.1 -1 ------- null}
r -t 0.28624 -s 2 -d 3 -p tcp -e 1040 -c 1 -i 43 -a 1 -x {1.0 3.0 2 ------- null}
+ -t 0.28624 -s 3 -d 2 -p ack -e 40 -c 1 -i 47 -a 1 -x {3.0 1.0 2 ------- null}
- -t 0.28624 -s 3 -d 2 -p ack -e 40 -c 1 -i 47 -a 1 -x {3.0 1.0 2 ------- null}
h -t 0.28624 -s 3 -d 2 -p ack -e 40 -c 1 -i 47 -a 1 -x {3.0 1.0 -1 ------- null}
r -t 0.287988357931862 -s 1 -d 0 -p rtProtoDV -e 6 -c 0 -i 45 -a 0 -x {1.2 0.1 -1 ------- null}
r -t 0.287988357931862 -s 1 -d 2 -p rtProtoDV -e 6 -c 0 -i 46 -a 0 -x {1.2 2.1 -1 ------- null}
r -t 0.28824 -s 3 -d 2 -p ack -e 40 -c 1 -i 44 -a 1 -x {3.0 1.0 1 ------- null}
+ -t 0.28824 -s 2 -d 1 -p ack -e 40 -c 1 -i 44 -a 1 -x {3.0 1.0 1 ------- null}
- -t 0.28824 -s 2 -d 1 -p ack -e 40 -c 1 -i 44 -a 1 -x {3.0 1.0 1 ------- null}
h -t 0.28824 -s 2 -d 1 -p ack -e 40 -c 1 -i 44 -a 1 -x {3.0 1.0 -1 ------- null}
r -t 0.29656 -s 3 -d 2 -p ack -e 40 -c 1 -i 47 -a 1 -x {3.0 1.0 2 ------- null}
+ -t 0.29656 -s 2 -d 1 -p ack -e 40 -c 1 -i 47 -a 1 -x {3.0 1.0 2 ------- null}
- -t 0.29656 -s 2 -d 1 -p ack -e 40 -c 1 -i 47 -a 1 -x {3.0 1.0 2 ------- null}
h -t 0.29656 -s 2 -d 1 -p ack -e 40 -c 1 -i 47 -a 1 -x {3.0 1.0 -1 ------- null}
r -t 0.29856 -s 2 -d 1 -p ack -e 40 -c 1 -i 44 -a 1 -x {3.0 1.0 1 ------- null}
+ -t 0.29856 -s 1 -d 2 -p tcp -e 1040 -c 1 -i 48 -a 1 -x {1.0 3.0 3 ------- null}
- -t 0.29856 -s 1 -d 2 -p tcp -e 1040 -c 1 -i 48 -a 1 -x {1.0 3.0 3 ------- null}
h -t 0.29856 -s 1 -d 2 -p tcp -e 1040 -c 1 -i 48 -a 1 -x {1.0 3.0 -1 ------- null}
+ -t 0.29856 -s 1 -d 2 -p tcp -e 1040 -c 1 -i 49 -a 1 -x {1.0 3.0 4 ------- null}
r -t 0.30688 -s 2 -d 1 -p ack -e 40 -c 1 -i 47 -a 1 -x {3.0 1.0 2 ------- null}
+ -t 0.30688 -s 1 -d 2 -p tcp -e 1040 -c 1 -i 50 -a 1 -x {1.0 3.0 5 ------- null}
+ -t 0.30688 -s 1 -d 2 -p tcp -e 1040 -c 1 -i 51 -a 1 -x {1.0 3.0 6 ------- null}
- -t 0.30688 -s 1 -d 2 -p tcp -e 1040 -c 1 -i 49 -a 1 -x {1.0 3.0 4 ------- null}
h -t 0.30688 -s 1 -d 2 -p tcp -e 1040 -c 1 -i 49 -a 1 -x {1.0 3.0 -1 ------- null}
- -t 0.3152 -s 1 -d 2 -p tcp -e 1040 -c 1 -i 50 -a 1 -x {1.0 3.0 5 ------- null}
h -t 0.3152 -s 1 -d 2 -p tcp -e 1040 -c 1 -i 50 -a 1 -x {1.0 3.0 -1 ------- null}
r -t 0.31688 -s 1 -d 2 -p tcp -e 1040 -c 1 -i 48 -a 1 -x {1.0 3.0 3 ------- null}
+ -t 0.31688 -s 2 -d 3 -p tcp -e 1040 -c 1 -i 48 -a 1 -x {1.0 3.0 3 ------- null}
- -t 0.31688 -s 2 -d 3 -p tcp -e 1040 -c 1 -i 48 -a 1 -x {1.0 3.0 3 ------- null}
h -t 0.31688 -s 2 -d 3 -p tcp -e 1040 -c 1 -i 48 -a 1 -x {1.0 3.0 -1 ------- null}
- -t 0.32352 -s 1 -d 2 -p tcp -e 1040 -c 1 -i 51 -a 1 -x {1.0 3.0 6 ------- null}
h -t 0.32352 -s 1 -d 2 -p tcp -e 1040 -c 1 -i 51 -a 1 -x {1.0 3.0 -1 ------- null}
r -t 0.3252 -s 1 -d 2 -p tcp -e 1040 -c 1 -i 49 -a 1 -x {1.0 3.0 4 ------- null}
+ -t 0.3252 -s 2 -d 3 -p tcp -e 1040 -c 1 -i 49 -a 1 -x {1.0 3.0 4 ------- null}
- -t 0.3252 -s 2 -d 3 -p tcp -e 1040 -c 1 -i 49 -a 1 -x {1.0 3.0 4 ------- null}
h -t 0.3252 -s 2 -d 3 -p tcp -e 1040 -c 1 -i 49 -a 1 -x {1.0 3.0 -1 ------- null}
r -t 0.33352 -s 1 -d 2 -p tcp -e 1040 -c 1 -i 50 -a 1 -x {1.0 3.0 5 ------- null}
+ -t 0.33352 -s 2 -d 3 -p tcp -e 1040 -c 1 -i 50 -a 1 -x {1.0 3.0 5 ------- null}
- -t 0.33352 -s 2 -d 3 -p tcp -e 1040 -c 1 -i 50 -a 1 -x {1.0 3.0 5 ------- null}
h -t 0.33352 -s 2 -d 3 -p tcp -e 1040 -c 1 -i 50 -a 1 -x {1.0 3.0 -1 ------- null}
r -t 0.3352 -s 2 -d 3 -p tcp -e 1040 -c 1 -i 48 -a 1 -x {1.0 3.0 3 ------- null}
+ -t 0.3352 -s 3 -d 2 -p ack -e 40 -c 1 -i 52 -a 1 -x {3.0 1.0 3 ------- null}
- -t 0.3352 -s 3 -d 2 -p ack -e 40 -c 1 -i 52 -a 1 -x {3.0 1.0 3 ------- null}
h -t 0.3352 -s 3 -d 2 -p ack -e 40 -c 1 -i 52 -a 1 -x {3.0 1.0 -1 ------- null}
r -t 0.34184 -s 1 -d 2 -p tcp -e 1040 -c 1 -i 51 -a 1 -x {1.0 3.0 6 ------- null}
+ -t 0.34184 -s 2 -d 3 -p tcp -e 1040 -c 1 -i 51 -a 1 -x {1.0 3.0 6 ------- null}
- -t 0.34184 -s 2 -d 3 -p tcp -e 1040 -c 1 -i 51 -a 1 -x {1.0 3.0 6 ------- null}
h -t 0.34184 -s 2 -d 3 -p tcp -e 1040 -c 1 -i 51 -a 1 -x {1.0 3.0 -1 ------- null}
r -t 0.34352 -s 2 -d 3 -p tcp -e 1040 -c 1 -i 49 -a 1 -x {1.0 3.0 4 ------- null}
+ -t 0.34352 -s 3 -d 2 -p ack -e 40 -c 1 -i 53 -a 1 -x {3.0 1.0 4 ------- null}
- -t 0.34352 -s 3 -d 2 -p ack -e 40 -c 1 -i 53 -a 1 -x {3.0 1.0 4 ------- null}
h -t 0.34352 -s 3 -d 2 -p ack -e 40 -c 1 -i 53 -a 1 -x {3.0 1.0 -1 ------- null}
r -t 0.34552 -s 3 -d 2 -p ack -e 40 -c 1 -i 52 -a 1 -x {3.0 1.0 3 ------- null}
+ -t 0.34552 -s 2 -d 1 -p ack -e 40 -c 1 -i 52 -a 1 -x {3.0 1.0 3 ------- null}
- -t 0.34552 -s 2 -d 1 -p ack -e 40 -c 1 -i 52 -a 1 -x {3.0 1.0 3 ------- null}
h -t 0.34552 -s 2 -d 1 -p ack -e 40 -c 1 -i 52 -a 1 -x {3.0 1.0 -1 ------- null}
r -t 0.35184 -s 2 -d 3 -p tcp -e 1040 -c 1 -i 50 -a 1 -x {1.0 3.0 5 ------- null}
+ -t 0.35184 -s 3 -d 2 -p ack -e 40 -c 1 -i 54 -a 1 -x {3.0 1.0 5 ------- null}
- -t 0.35184 -s 3 -d 2 -p ack -e 40 -c 1 -i 54 -a 1 -x {3.0 1.0 5 ------- null}
h -t 0.35184 -s 3 -d 2 -p ack -e 40 -c 1 -i 54 -a 1 -x {3.0 1.0 -1 ------- null}
r -t 0.35384 -s 3 -d 2 -p ack -e 40 -c 1 -i 53 -a 1 -x {3.0 1.0 4 ------- null}
+ -t 0.35384 -s 2 -d 1 -p ack -e 40 -c 1 -i 53 -a 1 -x {3.0 1.0 4 ------- null}
- -t 0.35384 -s 2 -d 1 -p ack -e 40 -c 1 -i 53 -a 1 -x {3.0 1.0 4 ------- null}
h -t 0.35384 -s 2 -d 1 -p ack -e 40 -c 1 -i 53 -a 1 -x {3.0 1.0 -1 ------- null}
r -t 0.35584 -s 2 -d 1 -p ack -e 40 -c 1 -i 52 -a 1 -x {3.0 1.0 3 ------- null}
+ -t 0.35584 -s 1 -d 2 -p tcp -e 1040 -c 1 -i 55 -a 1 -x {1.0 3.0 7 ------- null}
- -t 0.35584 -s 1 -d 2 -p tcp -e 1040 -c 1 -i 55 -a 1 -x {1.0 3.0 7 ------- null}
h -t 0.35584 -s 1 -d 2 -p tcp -e 1040 -c 1 -i 55 -a 1 -x {1.0 3.0 -1 ------- null}
+ -t 0.35584 -s 1 -d 2 -p tcp -e 1040 -c 1 -i 56 -a 1 -x {1.0 3.0 8 ------- null}
r -t 0.36016 -s 2 -d 3 -p tcp -e 1040 -c 1 -i 51 -a 1 -x {1.0 3.0 6 ------- null}
+ -t 0.36016 -s 3 -d 2 -p ack -e 40 -c 1 -i 57 -a 1 -x {3.0 1.0 6 ------- null}
- -t 0.36016 -s 3 -d 2 -p ack -e 40 -c 1 -i 57 -a 1 -x {3.0 1.0 6 ------- null}
h -t 0.36016 -s 3 -d 2 -p ack -e 40 -c 1 -i 57 -a 1 -x {3.0 1.0 -1 ------- null}
r -t 0.36216 -s 3 -d 2 -p ack -e 40 -c 1 -i 54 -a 1 -x {3.0 1.0 5 ------- null}
+ -t 0.36216 -s 2 -d 1 -p ack -e 40 -c 1 -i 54 -a 1 -x {3.0 1.0 5 ------- null}
- -t 0.36216 -s 2 -d 1 -p ack -e 40 -c 1 -i 54 -a 1 -x {3.0 1.0 5 ------- null}
h -t 0.36216 -s 2 -d 1 -p ack -e 40 -c 1 -i 54 -a 1 -x {3.0 1.0 -1 ------- null}
r -t 0.36416 -s 2 -d 1 -p ack -e 40 -c 1 -i 53 -a 1 -x {3.0 1.0 4 ------- null}
+ -t 0.36416 -s 1 -d 2 -p tcp -e 1040 -c 1 -i 58 -a 1 -x {1.0 3.0 9 ------- null}
+ -t 0.36416 -s 1 -d 2 -p tcp -e 1040 -c 1 -i 59 -a 1 -x {1.0 3.0 10 ------- null}
- -t 0.36416 -s 1 -d 2 -p tcp -e 1040 -c 1 -i 56 -a 1 -x {1.0 3.0 8 ------- null}
h -t 0.36416 -s 1 -d 2 -p tcp -e 1040 -c 1 -i 56 -a 1 -x {1.0 3.0 -1 ------- null}
r -t 0.37048 -s 3 -d 2 -p ack -e 40 -c 1 -i 57 -a 1 -x {3.0 1.0 6 ------- null}
+ -t 0.37048 -s 2 -d 1 -p ack -e 40 -c 1 -i 57 -a 1 -x {3.0 1.0 6 ------- null}
- -t 0.37048 -s 2 -d 1 -p ack -e 40 -c 1 -i 57 -a 1 -x {3.0 1.0 6 ------- null}
h -t 0.37048 -s 2 -d 1 -p ack -e 40 -c 1 -i 57 -a 1 -x {3.0 1.0 -1 ------- null}
r -t 0.37248 -s 2 -d 1 -p ack -e 40 -c 1 -i 54 -a 1 -x {3.0 1.0 5 ------- null}
+ -t 0.37248 -s 1 -d 2 -p tcp -e 1040 -c 1 -i 60 -a 1 -x {1.0 3.0 11 ------- null}
+ -t 0.37248 -s 1 -d 2 -p tcp -e 1040 -c 1 -i 61 -a 1 -x {1.0 3.0 12 ------- null}
- -t 0.37248 -s 1 -d 2 -p tcp -e 1040 -c 1 -i 58 -a 1 -x {1.0 3.0 9 ------- null}
h -t 0.37248 -s 1 -d 2 -p tcp -e 1040 -c 1 -i 58 -a 1 -x {1.0 3.0 -1 ------- null}
r -t 0.37416 -s 1 -d 2 -p tcp -e 1040 -c 1 -i 55 -a 1 -x {1.0 3.0 7 ------- null}
+ -t 0.37416 -s 2 -d 3 -p tcp -e 1040 -c 1 -i 55 -a 1 -x {1.0 3.0 7 ------- null}
- -t 0.37416 -s 2 -d 3 -p tcp -e 1040 -c 1 -i 55 -a 1 -x {1.0 3.0 7 ------- null}
h -t 0.37416 -s 2 -d 3 -p tcp -e 1040 -c 1 -i 55 -a 1 -x {1.0 3.0 -1 ------- null}
r -t 0.3808 -s 2 -d 1 -p ack -e 40 -c 1 -i 57 -a 1 -x {3.0 1.0 6 ------- null}
+ -t 0.3808 -s 1 -d 2 -p tcp -e 1040 -c 1 -i 62 -a 1 -x {1.0 3.0 13 ------- null}
+ -t 0.3808 -s 1 -d 2 -p tcp -e 1040 -c 1 -i 63 -a 1 -x {1.0 3.0 14 ------- null}
- -t 0.3808 -s 1 -d 2 -p tcp -e 1040 -c 1 -i 59 -a 1 -x {1.0 3.0 10 ------- null}
h -t 0.3808 -s 1 -d 2 -p tcp -e 1040 -c 1 -i 59 -a 1 -x {1.0 3.0 -1 ------- null}
r -t 0.38248 -s 1 -d 2 -p tcp -e 1040 -c 1 -i 56 -a 1 -x {1.0 3.0 8 ------- null}
+ -t 0.38248 -s 2 -d 3 -p tcp -e 1040 -c 1 -i 56 -a 1 -x {1.0 3.0 8 ------- null}
- -t 0.38248 -s 2 -d 3 -p tcp -e 1040 -c 1 -i 56 -a 1 -x {1.0 3.0 8 ------- null}
h -t 0.38248 -s 2 -d 3 -p tcp -e 1040 -c 1 -i 56 -a 1 -x {1.0 3.0 -1 ------- null}
- -t 0.38912 -s 1 -d 2 -p tcp -e 1040 -c 1 -i 60 -a 1 -x {1.0 3.0 11 ------- null}
h -t 0.38912 -s 1 -d 2 -p tcp -e 1040 -c 1 -i 60 -a 1 -x {1.0 3.0 -1 ------- null}
r -t 0.3908 -s 1 -d 2 -p tcp -e 1040 -c 1 -i 58 -a 1 -x {1.0 3.0 9 ------- null}
+ -t 0.3908 -s 2 -d 3 -p tcp -e 1040 -c 1 -i 58 -a 1 -x {1.0 3.0 9 ------- null}
- -t 0.3908 -s 2 -d 3 -p tcp -e 1040 -c 1 -i 58 -a 1 -x {1.0 3.0 9 ------- null}
h -t 0.3908 -s 2 -d 3 -p tcp -e 1040 -c 1 -i 58 -a 1 -x {1.0 3.0 -1 ------- null}
r -t 0.39248 -s 2 -d 3 -p tcp -e 1040 -c 1 -i 55 -a 1 -x {1.0 3.0 7 ------- null}
+ -t 0.39248 -s 3 -d 2 -p ack -e 40 -c 1 -i 64 -a 1 -x {3.0 1.0 7 ------- null}
- -t 0.39248 -s 3 -d 2 -p ack -e 40 -c 1 -i 64 -a 1 -x {3.0 1.0 7 ------- null}
h -t 0.39248 -s 3 -d 2 -p ack -e 40 -c 1 -i 64 -a 1 -x {3.0 1.0 -1 ------- null}
- -t 0.39744 -s 1 -d 2 -p tcp -e 1040 -c 1 -i 61 -a 1 -x {1.0 3.0 12 ------- null}
h -t 0.39744 -s 1 -d 2 -p tcp -e 1040 -c 1 -i 61 -a 1 -x {1.0 3.0 -1 ------- null}
r -t 0.39912 -s 1 -d 2 -p tcp -e 1040 -c 1 -i 59 -a 1 -x {1.0 3.0 10 ------- null}
+ -t 0.39912 -s 2 -d 3 -p tcp -e 1040 -c 1 -i 59 -a 1 -x {1.0 3.0 10 ------- null}
- -t 0.39912 -s 2 -d 3 -p tcp -e 1040 -c 1 -i 59 -a 1 -x {1.0 3.0 10 ------- null}
h -t 0.39912 -s 2 -d 3 -p tcp -e 1040 -c 1 -i 59 -a 1 -x {1.0 3.0 -1 ------- null}
+ -t 0.399577726796073 -s 5 -d 0 -p rtProtoDV -e 6 -c 0 -i 65 -a 0 -x {5.1 0.1 -1 ------- null}
- -t 0.399577726796073 -s 5 -d 0 -p rtProtoDV -e 6 -c 0 -i 65 -a 0 -x {5.1 0.1 -1 ------- null}
h -t 0.399577726796073 -s 5 -d 0 -p rtProtoDV -e 6 -c 0 -i 65 -a 0 -x {5.1 0.1 -1 ------- null}
+ -t 0.399577726796073 -s 5 -d 4 -p rtProtoDV -e 6 -c 0 -i 66 -a 0 -x {5.1 4.1 -1 ------- null}
- -t 0.399577726796073 -s 5 -d 4 -p rtProtoDV -e 6 -c 0 -i 66 -a 0 -x {5.1 4.1 -1 ------- null}
h -t 0.399577726796073 -s 5 -d 4 -p rtProtoDV -e 6 -c 0 -i 66 -a 0 -x {5.1 4.1 -1 ------- null}